NAME,SMILES,BP_C,BP_K
"2,4 DIAMINOANISOLE",COc1ccc(N)cc1N,221,494.15
"BENZENAMINE, 2-(1-METHYLETHYL)-",CC(C)c1ccccc1N,221,494.15
2-(2-Aminoethoxy)ethanol,NCCOCCO,221,494.15
3-PHENYL PROPYLAMINE,NCCCc1ccccc1,221,494.15
"NAPHTHALENE, 1,2,3,4-TETRAHYDRO-2-METHYL-",CC1Cc2ccccc2CC1,221,494.15
"Benzeneacetaldehyde, 2-methyl-",Cc1ccccc1CC=O,221,494.15
"BENZENE, 1,2,4-TRIMETHYL-5-(1-METHYLETHYL)-",CC(C)c1cc(C)c(C)cc1C,221,494.15
"5,6-Dimethyl-benzofuran",Cc1cc2ccoc2cc1C,221,494.15
"2,3-DIMETHYLANILINE",Cc1cccc(N)c1C,221.5,494.65
"Benzeneacetaldehyde, 4-methyl-",Cc1ccc(CC=O)cc1,221.5,494.65
(1R)-(-)-Myrtenol,CC1(C)[C@H]2C[C@@H]1CC=C2CO,221.5,494.65
5-Aminopentanol,NCCCCCO,221.5,494.65
"3,4-DIBROMOTHIOPHENE",Brc1c[s]cc1Br,221.5,494.65
"2H-INDEN-2-ONE, OCTAHYDRO-, CIS-, 2H-INDEN-2-ONE, OCTAHYDRO-, TRANS-",O=C1C[C@@H]2CCCC[C@@H]2C1,221.5,494.65
"3,5-DIMETHYLPHENOL",Cc1cc(O)cc(C)c1,221.7,494.85
ACETAMIDE,CC(N)=O,222,495.15
2-NITROTOLUENE,Cc1ccccc1[N+]([O-])=O,222,495.15
"1,2-Propanedione, 1-phenyl-",CC(=O)C(=O)c1ccccc1,222,495.15
N-PROPYLANILINE,CCCNc1ccccc1,222,495.15
"3,5-DIBROMOPYRIDINE",Brc1c[n]cc(Br)c1,222,495.15
"Benzene, 1,4-dichloro-2,5-dimethyl-",Cc1cc(Cl)c(C)cc1Cl,222,495.15
"2-Pyridinamine, 3-methyl-",Cc1ccc[n]c1N,222,495.15
"1,2-Propanediol, 3-ethoxy-",CCOCC(O)CO,222,495.15
"2,3,3-TRICHLORO-2-PROPENOIC ACID",OC(=O)C(Cl)=C(Cl)Cl,222,495.15
"QUINOLINE, 5,6,7,8-TETRAHYDRO-",C1CCCc2[n]cccc21,222,495.15
"Propanedioic acid, chloro-, diethyl ester",CCOC(=O)C(Cl)C(=O)OCC,222,495.15
"Propane, 1,2,3-tribromo-",BrC(CBr)CBr,222.1,495.25
HEPTANOIC ACID,CCCCCCC(O)=O,222.2,495.35
"Pentane, 1,5-dibromo-",BrCCCCCBr,222.3,495.45
"Propanedioic acid, 2-propenyl-, diethyl ester",CCOC(=O)C(CC=C)C(=O)OCC,222.5,495.65
1-Piperidinecarboxaldehyde,O=CN1CCCCC1,222.5,495.65
METHYL SALICYLATE,COC(=O)c1ccccc1O,222.9,496.05
O-T-BUTYLPHENOL,CC(C)(C)c1ccccc1O,223,496.15
"BENZENE, 1-CHLORO-4-(CHLOROMETHYL)-",Clc1ccc(CCl)cc1,223,496.15
DI-N-HEXYL ETHER,CCCCCCOCCCCCC,223,496.15
"BENZENE, (BUTOXYMETHYL)-",CCCCOCc1ccccc1,223,496.15
"BENZONITRILE, 4-CHLORO-",N#Cc1ccc(Cl)cc1,223,496.15
"2,5-Furandione, 3,4-dimethyl-",CC1C(=O)OC(=O)C=1C,223,496.15
"Benzenepropanal, 4-methyl-",Cc1ccc(CCC=O)cc1,223,496.15
1-Amino-3-diethylamino-propan-2-ol,CCN(CC(O)CN)CC,223,496.15
"PROPANE, 1,1',1''-[METHYLIDYNETRIS(OXY)]TRIS[2-M",CC(C)COC(OCC(C)C)OCC(C)C,223,496.15
4-Isopropyl-cyclohex-1-enecarbaldehyde,CC(C)C1CC=C(CC1)C=O,223,496.15
1-CHLORODECANE,CCCCCCCCCCCl,223.4,496.55
"BENZENEMETHANOL, 2-METHYL-",Cc1ccccc1CO,224,497.15
2-METHOXYANILINE,COc1ccccc1N,224,497.15
Benzenepropanal,O=CCCc1ccccc1,224,497.15
METHYL DECANOATE,CCCCCCCCCC(=O)OC,224,497.15
"NICOTINIC ACID, ETHYL ESTER",CCOC(=O)c1ccc[n]c1,224,497.15
"Pentanoic acid, 2-acetyl-, ethyl ester",CC(=O)C(CCC)C(=O)OCC,224,497.15
"Cyclotetrasiloxane, 2,4,6,8-tetraethenyl-2,4,6,8",C[Si]1(C=C)O[Si](C)(C=C)O[Si](C)(C=C)O[Si](C)(C=C)O1,224,497.15
"1,1-Cyclobutanedicarboxylic acid, diethyl ester",CCOC(=O)C1(CCC1)C(=O)OCC,224,497.15
1-CYCLOHEXYLHEXANE,CCCCCCC1CCCCC1,224,497.15
2-Chloro-but-2-enedioic acid dimethyl ester,COC(=O)C=C(Cl)C(=O)OC,224,497.15
"3,7-DIMETHYL-6-OCTEN-1-OL, (+-)-CITRONELLOL",CC(CCO)CCC=C(C)C,224.25,497.4
Dihydrocarveol,C[C@@H]1CC[C@H](C[C@@H]1O)C(C)=C,224.5,497.65
"2H-1-BENZOPYRAN, 3,4-DIHYDRO-2-METHYL-",CC1CCc2ccccc2O1,224.5,497.65
3-Methoxy thiophenol,COc1cccc(S)c1,224.5,497.65
CHLOROACETAMIDE,NC(=O)CCl,225,498.15
P-ISOPROPYLANILINE,CC(C)c1ccc(N)cc1,225,498.15
"1,8-OCTANEDIAMINE",NCCCCCCCCN,225,498.15
"Benzene, 2-bromo-1,3,5-trimethyl-",Cc1cc(C)c(Br)c(C)c1,225,498.15
O-DIBROMOBENZENE,Brc1ccccc1Br,225,498.15
Tribromo-acetic acid ethyl ester,CCOC(=O)C(Br)(Br)Br,225,498.15
M-CHLOROBENZOYLCHLORIDE,O=C(Cl)c1cc(Cl)ccc1,225,498.15
"Phosphonous dichloride, phenyl-",ClP(Cl)c1ccccc1,225,498.15
"BENZENAMINE, 4-PROPYL-",CCCc1ccc(N)cc1,225,498.15
Perfluoropentane-1-sulfonic Acid,OS(=O)(=O)C(F)(F)C(F)(F)C(F)(F)C(F)(F)C(F)(F)F,225,498.15
1-Methyl-2-chlorophenol,Cc1c(O)cccc1Cl,225,498.15
"BUTANOIC ACID, PHENYL ESTER",CCCC(=O)Oc1ccccc1,225,498.15
3-BROMOBENZONITRILE,N#Cc1cccc(Br)c1,225,498.15
1-IODOOCTANE,CCCCCCCCI,225.5,498.65
"Hexanoic acid, 3-methylbutyl ester",CCCCCC(=O)OCCC(C)C,225.5,498.65
2-ISOPROPYL-6-METHYLPHENOL,Cc1cccc(C(C)C)c1O,225.5,498.65
"Butanoic acid, heptyl ester",CCCCCCCOC(=O)CCC,225.8,498.95
"1,3-DIMETHYL-2-NITROBENZENE",Cc1cccc(C)c1[N+]([O-])=O,226,499.15
P-METHYLACETOPHENONE,Cc1ccc(cc1)C(C)=O,226,499.15
Conhydrine,CC[C@@H](O)[C@@H]1CCCCN1,226,499.15
"Hexanoic acid, pentyl ester",CCCCCOC(=O)CCCCC,226,499.15
"Butanamide, 3-methyl-",CC(C)CC(N)=O,226,499.15
A-NITROTOLUENE,[O-][N+](=O)Cc1ccccc1,226,499.15
"2,4-DIMETHYLPHENYL ACETATE",Cc1cc(C)c(cc1)OC(C)=O,226,499.15
Hept-6-enoic acid,C=CCCCCC(O)=O,226,499.15
2-Propylaniline,CCCc1ccccc1N,226,499.15
"2,3,6-TRIMETHYLPHENOL",Cc1ccc(C)c(O)c1C,226,499.15
3-PYRIDINEMETHANEAMINE,NCc1c[n]ccc1,226,499.15
"NAPHTHALENE, 1,2,3,4-TETRAHYDRO-1,4-DIMETHYL-",C[C@@H]1CC[C@H](C)c2ccccc21,226,499.15
"Pyridine, 4-(3-cyclohexen-1-yl)-",C1C=CCCC1c1cc[n]cc1,226,499.15
N-HEXYLBENZENE,CCCCCCc1ccccc1,226.1,499.25
BUTYL HEPTANOATE,CCCCOC(=O)CCCCCC,226.2,499.35
"Octanoic acid, propyl ester",CCCCCCCC(=O)OCCC,226.4,499.55
"Piperidine, 1-acetyl-",CC(=O)N1CCCCC1,226.5,499.65
"Benzoic acid, 2-methyl-, ethyl ester",Cc1ccccc1C(=O)OCC,227,500.15
"3,4-DIMETHYLPHENOL",Cc1cc(O)ccc1C,227,500.15
"BENZENEACETIC ACID, ETHYL ESTER",CCOC(=O)Cc1ccccc1,227,500.15
ETHYL NONANOATE,CCCCCCCCC(=O)OCC,227,500.15
"8-AZABICYCLO[3.2.1]OCTAN-3-ONE, 8-METHYL-",CN1C2CC(=O)CC1CC2,227,500.15
2-AMINO-5-METHYLPYRIDINE,Cc1ccc(N)[n]c1,227,500.15
3-UNDECANONE,CCCCCCCCC(=O)CC,227,500.15
6-Hydroxy-hexan-2-one,CC(=O)CCCCO,227,500.15
Undecan-5-one,CCCCC(=O)CCCCCC,227,500.15
"2,3,6-TRICHLOROANISOLE",COc1c(Cl)c(Cl)ccc1Cl,227,500.15
"GERANIOL, 2,6-Octadien-1-ol, 3,7-dimethyl-, (Z)-",CC(C)=CCC/C(/C)=C/CO,227.5,500.65
3-CHLORO-4-FLUOROANILINE,Nc1cc(Cl)c(F)cc1,227.5,500.65
4-Piperidineethanol,OCCC1CCNCC1,227.5,500.65
"Ethanone, 1-(2,4-dimethylphenyl)-",Cc1cc(C)c(cc1)C(C)=O,228,501.15
DIHYDROSAFROLE,CCCc1cc2OCOc2cc1,228,501.15
"2-Cyclohexen-1-ol, 2-methyl-5-(1-methylethenyl)-",CC1=CCC(CC1O)C(C)=C,228,501.15
"2,6-Octadienal, 3,7-dimethyl-, (E)-, CITRAL",CC(C)=CCCC(C)=CC=O,228,501.15
"HEXANOIC ACID, 2-ETHYL-",CCCCC(CC)C(O)=O,228,501.15
"Phenol, 3-chloro-4-methyl-",Cc1ccc(O)cc1Cl,228,501.15
"Hydrazine, 1-methyl-1-phenyl-",CN(N)c1ccccc1,228,501.15
3-Propylphenol,CCCc1cc(O)ccc1,228,501.15
2-Methyl-but-2-enedioic acid diethyl ester,CC(=CC(=O)OCC)C(=O)OCC,228,501.15
4-Methoxythiophenol,COc1ccc(S)cc1,228,501.15
5-NITRO-2-FURALDEHYDE,[O-][N+](=O)c1ccc(C=O)o1,228,501.15
6-UNDECANONE,CCCCCC(=O)CCCCC,228,501.15
"Cyclohexanol, 2-phenyl-",OC1CCCCC1c1ccccc1,228,501.15
"Benzene, 1-fluoro-4-isothiocyanato-",Fc1ccc(cc1)N=C=S,228,501.15
"Benzeneacetic acid, .alpha.-ethyl-, methyl ester",CCC(C(=O)OC)c1ccccc1,228,501.15
"Butanedioic acid, methylene-, diethyl ester",CCOC(=O)C(=C)CC(=O)OCC,228,501.15
4-Oxo-pentanoic acid isobutyl ester,CC(=O)CCC(=O)OCC(C)C,228,501.15
2-Butyl-4-methyl-phenol,Cc1ccc(O)c(CCCC)c1,228,501.15
6-UNDECANOL,CCCCCC(O)CCCCC,228,501.15
"1-BUTANONE, 1-PHENYL-",CCCC(=O)c1ccccc1,228.5,501.65
"Phenol, 4-methyl-2-(1-methylethyl)-",Cc1ccc(O)c(c1)C(C)C,228.5,501.65
2-Dibutylaminoethanol,CCCCN(CCO)CCCC,229,502.15
Diethlylene glycol bis chloroformate,O=C(Cl)OCCOCCOC(=O)Cl,229,502.15
"Benzenamine, N,N-diethyl-4-methyl-",Cc1ccc(cc1)N(CC)CC,229,502.15
O-BROMOANILINE,Nc1ccccc1Br,229,502.15
"Ethanol, 2-((2-ethylhexyl)oxy)-",CCCCC(COCCO)CC,229,502.15
"NAPHTHALENE, 1,2,3,4-TETRAHYDRO-6-METHYL-",Cc1cc2CCCCc2cc1,229,502.15
2-Methoxy-benzylamine,COc1ccccc1CN,229,502.15
"4-CHLORO-1,2-BENZENEDIAMINE",Nc1cc(Cl)ccc1N,229.3,502.45
QUINOXALINE,c1c[n]c2ccccc2[n]1,229.5,502.65
"Benzene, 2-iodo-1,3-dimethyl-",Cc1cccc(C)c1I,229.5,502.65
"2-PROPANONE, 1-PHENOXY-",CC(=O)COc1ccccc1,229.5,502.65
"Benzene, 1-butoxy-4-methyl-",Cc1ccc(cc1)OCCCC,229.5,502.65
"Propanedioic acid, diethyl-, diethyl ester",CCC(CC)(C(=O)OCC)C(=O)OCC,230,503.15
P-ISOPROPYLPHENOL,CC(C)c1ccc(O)cc1,230,503.15
2-BROMO-3-METHYL-BUTANOIC ACID,CC(C)[C@@H](Br)C(O)=O,230,503.15
"Sulfurous acid, dibutyl ester",CCCCOS(=O)OCCCC,230,503.15
5-CHLOROPENTANOIC ACID,OC(=O)CCCCCl,230,503.15
2-Methyl-4-isopropylphenol,Cc1cc(ccc1O)C(C)C,230,503.15
"Phenol, 2-(1,1-dimethylethyl)-6-methyl-",Cc1cccc(c1O)C(C)(C)C,230,503.15
N-Benzyl ethylcarbamate,CCOC(=O)NCc1ccccc1,230,503.15
2-Decenal,CCCCCCCC=CC=O,230,503.15
"Hexane, 1,1'-thiobis-",CCCCCCSCCCCCC,230,503.15
"BENZENEMETHANOL, 2-CHLORO-",OCc1ccccc1Cl,230,503.15
"BENZENE, (2-ETHOXYETHOXY)-",CCOCCOc1ccccc1,230,503.15
"2,3,5-Trichlorotoluene",Cc1cc(Cl)cc(Cl)c1Cl,230,503.15
"CARVONE, 2-Cyclohexen-1-one, 2-methyl-5-(1-methylethenyl), (R)-(-)-CARVONE",CC1=CCC(CC1=O)C(C)=C,230.17,503.3166667
"Benzenethiol, 4-bromo-",Sc1ccc(Br)cc1,230.5,503.65
2-FURANCARBOXYLIC ACID,OC(=O)c1ccco1,231,504.15
BENZOTHIAZOLE,c1[n]c2ccccc2[s]1,231,504.15
DIETHYLENE GLYCOL MONO-N-BUTYL ETHER,CCCCOCCOCCO,231,504.15
"BENZALDEHYDE, 3-METHOXY-",COc1cccc(C=O)c1,231,504.15
4-Chloro-(dimethyl)aniline,CN(C)c1ccc(Cl)cc1,231,504.15
"Acetic acid, cyano-, butyl ester",CCCCOC(=O)CC#N,231,504.15
"2,4,5-TRICHLOROTOLUENE",Cc1cc(Cl)c(Cl)cc1Cl,231,504.15
1-DECANOL,CCCCCCCCCCO,231.1,504.25
"Benzenamine, N,N-diethyl-3-methyl-",Cc1cccc(c1)N(CC)CC,231.5,504.65
UNDECANONE,CCCCCCCCCC(C)=O,231.5,504.65
4-tert-Butyl-1-bromobenzene,CC(C)(C)c1ccc(Br)cc1,231.5,504.65
4-Methylbenzoic acid ethyl ester,Cc1ccc(cc1)C(=O)OCC,232,505.15
1-(4-CHLOROPHENYL)ETHANONE,CC(=O)c1ccc(Cl)cc1,232,505.15
"1,2-BIS(2-CHLOROETHOXY)ETHANE",ClCCOCCOCCCl,232,505.15
DODECAMETHYLPENTASILOXANE,C[Si](C)(C)O[Si](C)(C)O[Si](C)(C)O[Si](C)(C)O[Si](C)(C)C,232,505.15
"2,2,4-TRIMETHYL-1,3-PENTANEDIOL",CC(C)C(O)C(C)(C)CO,232,505.15
"Benzeneacetonitrile, 2-fluoro-",N#CCc1ccccc1F,232,505.15
"2,5-CYCLOHEXADIENE-1,4-DIONE, 2-METHYL-5-(1-METH",CC1=CC(=O)C(=CC1=O)C(C)C,232,505.15
"2,4,5-TRIMETHYLPHENOL",Cc1cc(O)c(C)cc1C,232,505.15
"PROPANEDIOIC ACID, ACETYL-, DIETHYL ESTER",CC(=O)C(C(=O)OCC)C(=O)OCC,232,505.15
"Benzene, 1-chloro-4-nitro-2-(trifluoromethyl)-",[O-][N+](=O)c1cc(c(Cl)cc1)C(F)(F)F,232,505.15
BENZYLTHIOCYANATE,N#CSCc1ccccc1,232,505.15
"Silane, trichlorooctyl-",CCCCCCCC[Si](Cl)(Cl)Cl,232,505.15
"2,4-DIMETHYLBENZYL ALCOHOL",Cc1cc(C)c(CO)cc1,232,505.15
"Benzene, 1-bromo-3,5-dichloro-",Clc1cc(Br)cc(Cl)c1,232,505.15
"Benzenamine, 2,4,6-trimethyl-",Cc1cc(C)c(N)c(C)c1,232.5,505.65
THYMOL,Cc1ccc(C(C)C)c(O)c1,232.5,505.65
"Isoquinoline, 1,2,3,4-tetrahydro-",C1NCCc2ccccc21,232.5,505.65
CYCLOHEXANECARBOXYLIC ACID,OC(=O)C1CCCCC1,232.5,505.65
"1,3-Propanediamine, N-(3-aminopropyl)-N-methyl-",CN(CCCN)CCCN,232.5,505.65
ETHYL 2-HYDROXYBENZOATE,CCOC(=O)c1ccccc1O,232.5,505.65
2-ETHYLNITROBENZENE,CCc1ccccc1[N+]([O-])=O,232.5,505.65
"Acetic acid, chloro-, phenyl ester",O=C(CCl)Oc1ccccc1,232.5,505.65
"UREA, TRIMETHYL-",CNC(=O)N(C)C,232.5,505.65
HEXAMETHYLPHOSPHORAMIDE,CN(C)P(=O)(N(C)C)N(C)C,232.5,505.65
"1,1'-Bicyclopentyl -2-one",O=C1CCCC1C1CCCC1,232.5,505.65
1-(5-Methyl-thiophen-2-yl)-ethanone,Cc1ccc([s]1)C(C)=O,232.5,505.65
"BENZOIC ACID, 2,4-DIMETHYL-, METHYL ESTER",Cc1ccc(C(=O)OC)c(C)c1,232.5,505.65
B-PHENYLETHYL ACETATE,CC(=O)OCCc1ccccc1,232.6,505.75
4-PROPYLPHENOL,CCCc1ccc(O)cc1,232.6,505.75
Piperitone,CC1CCC(C(C)C)C(=O)C=1,233,506.15
Furan-2-carboxylic acid butyl ester,CCCCOC(=O)c1ccco1,233,506.15
"2,4-Dichlorobenzaldehyde",O=Cc1ccc(Cl)cc1Cl,233,506.15
"DISILOXANE, HEXAETHYL-",CC[Si](CC)(CC)O[Si](CC)(CC)CC,233,506.15
1-TETRADECENE,CCCCCCCCCCCCC=C,233,506.15
PHENYLACETONITRILE,N#CCc1ccccc1,233.5,506.65
4-BROMO-2-CHLOROPHENOL,Oc1ccc(Br)cc1Cl,233.5,506.65
"1,3-Propanediol, 2-methyl-2-propyl-",CCCC(C)(CO)CO,234,507.15
"2(3H)-Furanone, 5-butyldihydro-",CCCCC1CCC(=O)O1,234,507.15
Ethyl m-methylbenzoate,Cc1cc(ccc1)C(=O)OCC,234,507.15
O-AMINOTHIOPHENOL,Nc1ccccc1S,234,507.15
BUTYL BORATE,CCCCOB(OCCCC)OCCCC,234,507.15
N-METHYLSUCCINIMIDE,CN1C(=O)CCC1=O,234,507.15
1-Methylcyclohexanecarboxylic acid,CC1(CCCCC1)C(O)=O,234,507.15
Diisoamylcarbonate,CC(C)CCOC(=O)OCCC(C)C,234,507.15
"NAPHTHALENE, 1,2,3,4-TETRAHYDRO-5-METHYL-",Cc1cccc2CCCCc21,234,507.15
"1-Bromo-2,4,5-trimethyl-benzene",Cc1cc(Br)c(C)cc1C,234,507.15
2-tert-Butylaniline,CC(C)(C)c1ccccc1N,234,507.15
"Benzene, 1-chloro-3,5-dimethoxy-",COc1cc(Cl)cc(c1)OC,234,507.15
DICHLORVOS,COP(=O)(OC=C(Cl)Cl)OC,234.1,507.25
"2-Cyclopenten-1-one, 3-phenyl-",O=C1CCC(=C1)c1ccccc1,234.2,507.35
"1,1'-SULFONYLBISETHENE",C=CS(=O)(=O)C=C,234.5,507.65
"ANETHOLE, ANETHOLE (TRANS)",CC=Cc1ccc(cc1)OC,234.5,507.65
"2,4,5-Trimethylaniline",Cc1cc(N)c(C)cc1C,234.5,507.65
2-CHLOROIODOBENZENE,Clc1ccccc1I,234.5,507.65
"Benzaldehyde, 3-bromo-",O=Cc1cccc(Br)c1,234.5,507.65
3-METHYL-4-CHLOROPHENOL,Cc1cc(O)ccc1Cl,235,508.15
"1,4-BUTANEDIOL",OCCCCO,235,508.15
2-METHOXY-5-METHYLBENZENAMINE,Cc1ccc(OC)c(N)c1,235,508.15
"BENZENE, 1,2,3-TRIMETHOXY-",COc1c(cccc1OC)OC,235,508.15
P-CHLOROBENZYL ALCOHOL,OCc1ccc(Cl)cc1,235,508.15
"1-Bromo-2,4-dichlorobenzene",Clc1cc(Cl)c(Br)cc1,235,508.15
"Pyrimidine, 2,4-dichloro-5-methyl-",Cc1c[n]c(Cl)[n]c1Cl,235,508.15
"1,3-Diethoxybenzene",CCOc1cc(ccc1)OCC,235,508.15
2-Methyl-4-bromophenol,Cc1cc(Br)ccc1O,235,508.15
2-BUTYLPHENOL,CCCCc1ccccc1O,235,508.15
"2,3-Dihydroxy-benzaldehyde",Oc1cccc(C=O)c1O,235,508.15
"NAPHTHALENE, 2-ETHYL-1,2,3,4-TETRAHYDRO-",CCC1Cc2ccccc2CC1,235,508.15
"Benzaldehyde, 4-(1-methylethyl)-",CC(C)c1ccc(C=O)cc1,235.5,508.65
"2,6-DIETHYLANILINE",CCc1cccc(CC)c1N,235.5,508.65
6-Aminohexanenitrile,NCCCCCC#N,235.5,508.65
"1,1'-Bicyclopentyl -2-ol",OC1CCCC1C1CCCC1,235.5,508.65
3-ETHYL-5-METHYLPHENOL,Cc1cc(CC)cc(O)c1,235.7,508.85
3-CHLORO-NITROBENZENE,[O-][N+](=O)c1cccc(Cl)c1,236,509.15
"1-Hexanamine, N-hexyl-",CCCCCCNCCCCCC,236,509.15
"Phenol, 2,3,4-trimethyl-",Cc1ccc(O)c(C)c1C,236,509.15
"Benzene, 1,4-dibromo-2-methyl-",Cc1cc(Br)ccc1Br,236,509.15
4-BROMOBENZONITRILE,N#Cc1ccc(Br)cc1,236,509.15
"2,5-PYRROLIDINEDIONE, 1-ETHYL-",CCN1C(=O)CCC1=O,236,509.15
1-(4-METHYLPHENYL)-1-PROPANONE,Cc1ccc(cc1)C(=O)CC,236,509.15
9-Decen-1-ol,C=CCCCCCCCCO,236,509.15
"1-Butanone, 3-methyl-1-phenyl-",CC(C)CC(=O)c1ccccc1,236.5,509.65
M-BROMOPHENOL,Oc1cc(Br)ccc1,236.5,509.65
DIETHYL GLUTARATE,CCOC(=O)CCCC(=O)OCC,236.5,509.65
2-(2-Methoxyphenyl)ethylamine,COc1ccccc1CCN,236.5,509.65
"Benzenemethanamine, 4-methoxy-",COc1ccc(CN)cc1,236.5,509.65
"1-Piperazinecarboxylic acid, ethyl ester",CCOC(=O)N1CCNCC1,237,510.15
"Benzene,  (3-methylbutoxy)methyl -",CC(C)CCOCc1ccccc1,237,510.15
"2(1H)-Naphthalenone, 3,4-dihydro-",O=C1Cc2ccccc2CC1,237,510.15
1-METHYLINDOLE,C[n]1ccc2ccccc12,237,510.15
4-METHYLPHENYLISOTHIOCYANATE,Cc1ccc(cc1)N=C=S,237,510.15
M-CHLOROBENZYL ALCOHOL,OCc1cccc(Cl)c1,237,510.15
"(2,5-Dimethylphenyl)acetate",Cc1cc(OC(C)=O)c(C)cc1,237,510.15
"2,6-Dihydroxyhexane",CC(O)CCCCO,237,510.15
"2,4-Dichloro-1-ethoxy-benzene",CCOc1ccc(Cl)cc1Cl,237,510.15
2-Allyl-4-methyl-phenol,Cc1cc(CC=C)c(O)cc1,237,510.15
"NAPHTHALENE, 1,2,3,4-TETRAHYDRO-2,7-DIMETHYL-",Cc1ccc2CCC(C)Cc2c1,237,510.15
"Benzene, 4-bromo-1,2-dichloro-",Clc1cc(Br)ccc1Cl,237,510.15
QUINOLINE,c1cccc2[n]cccc21,237.1,510.25
"PROPANEDIOIC ACID, BUTYL-, DIETHYL ESTER",CCCCC(C(=O)OCC)C(=O)OCC,237.5,510.65
"1,2,4-BENZOTRIAZINE",c1[n][n]c2ccccc2[n]1,237.5,510.65
gamma-Cyanopropyltrichlorosilane,N#CCCC[Si](Cl)(Cl)Cl,237.5,510.65
"Pentanoic acid, 4-oxo-, butyl ester",CC(=O)CCC(=O)OCCCC,237.5,510.65
"Benzoic acid, 4-chloro-, ethyl ester",CCOC(=O)c1ccc(Cl)cc1,237.5,510.65
PHENYLUREA,NC(=O)Nc1ccccc1,238,511.15
DIMETHYL SULFONE,CS(C)(=O)=O,238,511.15
DICYCLOHEXYL,C1CCCCC1C1CCCCC1,238,511.15
N-PHENYL ETHYLCARBAMATE,CCOC(=O)Nc1ccccc1,238,511.15
P-BROMOPHENOL,Oc1ccc(Br)cc1,238,511.15
"2-BUTYNE-1,4-DIOL",OCC#CCO,238,511.15
2-PHENYLETHYL PROPIONATE,CCC(=O)OCCc1ccccc1,238,511.15
"Benzoic acid, 2-hydroxy-, 1-methylethyl ester",CC(C)OC(=O)c1ccccc1O,238,511.15
"Benzoyl chloride, 2-chloro-",O=C(Cl)c1ccccc1Cl,238,511.15
"1,3,5-TRIISOPROPYLBENZENE",CC(C)c1cc(cc(c1)C(C)C)C(C)C,238,511.15
"Benzene, 1,4-bis(1,1-dimethylethyl)-",CC(C)(C)c1ccc(cc1)C(C)(C)C,238,511.15
"4-(2,2-Dimethylpropyl)anisole",CC(C)(C)Cc1ccc(cc1)OC,238,511.15
4-Isobutyl-phenylamine,CC(C)Cc1ccc(N)cc1,238,511.15
P-NITROTOLUENE,Cc1ccc(cc1)[N+]([O-])=O,238.3,511.45
"GERANIOL ACETATE, NERYL ACETATE, Geranyl Acetate (isomer mix)",CC(C)=CCC/C(/C)=C/COC(C)=O,238.33,511.4833333
METHYL B-PHENYLPROPIONATE,COC(=O)CCc1ccccc1,238.5,511.65
Perfluorohexane-1-sulfonic Acid,OS(=O)(=O)C(F)(F)C(F)(F)C(F)(F)C(F)(F)C(F)(F)C(F)(F)F,238.5,511.65
M-TRIFLUOROMETHYLBENZOIC ACID,OC(=O)c1cc(ccc1)C(F)(F)F,238.5,511.65
"2,4-DIBROMOPHENOL",Oc1ccc(Br)cc1Br,238.5,511.65
5-CHLORO-O-TOLUIDINE,Cc1ccc(Cl)cc1N,239,512.15
"Butanoic acid, phenylmethyl ester",CCCC(=O)OCc1ccccc1,239,512.15
"1,5-PENTANEDIOL",OCCCCCO,239,512.15
2-(2-AMINOETHYLAMINO)ETHANOL,NCCNCCO,239,512.15
OCTANOIC ACID,CCCCCCCC(O)=O,239,512.15
Cyclohexyl methylphosphonofluoridate,CP(=O)(F)OC1CCCCC1,239,512.15
Octanamide,CCCCCCCC(N)=O,239,512.15
2-Hydroxy-4-phenylbutane,C[C@H](O)CCc1ccccc1,239,512.15
N-FORMYLMORPHOLINE,O=CN1CCOCC1,239,512.15
"Piperidine, 1-acetyl-3-methyl-",CC1CN(CCC1)C(C)=O,239,512.15
"1,5-Dimethyl-1,2,3,4-tetrahydro-naphthalene",Cc1cccc2C(C)CCCc12,239,512.15
TABUN,CCOP(=O)(C#N)N(C)C,240,513.15
"1,2-DIMETHYL-3-NITROBENZENE",Cc1cccc(c1C)[N+]([O-])=O,240,513.15
3-HYDROXYBENZALDEHYDE,Oc1cc(C=O)ccc1,240,513.15
"Naphthalene, 1,2,3,4-tetrahydro-1,1,6-trimethyl-",Cc1ccc2c(CCCC2(C)C)c1,240,513.15
"Benzenamine, 4-bromo-2-methyl-",Cc1cc(Br)ccc1N,240,513.15
"PHENOL, 3-(1,1-DIMETHYLETHYL)-",CC(C)(C)c1cccc(O)c1,240,513.15
M-METHOXYACETOPHENONE,CC(=O)c1cc(ccc1)OC,240,513.15
TRICHLOROACETAMIDE,NC(=O)C(Cl)(Cl)Cl,240,513.15
O-HYDROXYPHENYLACETIC ACID,Oc1ccccc1CC(O)=O,240,513.15
4-CHLOR-N-METHYLANILIN,CNc1ccc(Cl)cc1,240,513.15
"BENZENE, (HEXYLOXY)-",CCCCCCOc1ccccc1,240,513.15
"Phenol, 2,3,4,6-tetramethyl-",Cc1c(C)cc(C)c(O)c1C,240,513.15
"1,5,9-CYCLODODECATRIENE",C1CC=CCCC=CCCC=C1,240,513.15
3-METHYL-4-BROMOANILINE,Cc1cc(N)ccc1Br,240,513.15
3-Phenoxy-propionic acid,OC(=O)CCOc1ccccc1,240,513.15
"NAPHTHALENE, 1,2,3,4-TETRAHYDRO-2,6-DIMETHYL-",Cc1ccc2CC(C)CCc2c1,240,513.15
"Benzaldehyde, 3,5-dichloro-",O=Cc1cc(Cl)cc(Cl)c1,240,513.15
"Benzene, 1,4-dimethyl-2-nitro-",Cc1cc(c(C)cc1)[N+]([O-])=O,240.5,513.65
BUTYL OCTANOATE,CCCCOC(=O)CCCCCCC,240.5,513.65
1-BROMODECANE,CCCCCCCCCCBr,240.6,513.75
1-DECANETHIOL,CCCCCCCCCCS,240.6,513.75
P-(SEC-BUTYL)PHENOL,CCC(C)c1ccc(O)cc1,241,514.15
Hydroxycitronellal,CC(CC=O)CCCC(C)(C)O,241,514.15
QUINAZOLINE,c1[n]c[n]c2ccccc21,241,514.15
"1,2-Benzenediol, 3-methyl-",Cc1cccc(O)c1O,241,514.15
"Benzene, 1-iodo-2-methoxy-",COc1ccccc1I,241,514.15
1-CYCLOHEXENE-1-CARBOXYLIC ACID,OC(=O)C1CCCCC=1,241,514.15
"Benzeneacetonitrile, .alpha.-ethyl-",CCC(C#N)c1ccccc1,241,514.15
DIBUTYL OXALATE,CCCCOC(=O)C(=O)OCCCC,241,514.15
"Octane, 1,8-dichloro-",ClCCCCCCCCCl,241,514.15
2-(3-Methyl-butyl)-malonic acid diethyl ester,CC(C)CCC(C(=O)OCC)C(=O)OCC,241,514.15
3-METHYL-4-CHLOROANILINE,Cc1cc(N)ccc1Cl,241,514.15
2-METHYLNAPHTHALENE,Cc1cc2ccccc2cc1,241.1,514.25
ETHYL DECANOATE,CCCCCCCCCC(=O)OCC,241.5,514.65
"BENZENE, 4-CHLORO-1-METHYL-2-NITRO-",Cc1ccc(Cl)cc1[N+]([O-])=O,242,515.15
P-CHLORONITROBENZENE,[O-][N+](=O)c1ccc(Cl)cc1,242,515.15
PROPYLENE CARBONATE,CC1COC(=O)O1,242,515.15
PHENYL DICHLOROPHOSPHATE,O=P(Cl)(Cl)Oc1ccccc1,242,515.15
"Silane, trichloro(2-phenylethyl)-",Cl[Si](Cl)(Cl)CCc1ccccc1,242,515.15
"Benzenamine, N,N-dipropyl-",CCCN(CCC)c1ccccc1,242,515.15
"Benzoyl chloride, 3,4-dichloro-",O=C(Cl)c1cc(Cl)c(Cl)cc1,242,515.15
"1-BROMO-2,6-DICHLOROBENZENE",Clc1cccc(Cl)c1Br,242,515.15
2-METHYLBENZENAMINE HYDROCHLORIDE,Cl.Cc1ccccc1N,242.2,515.35
4-CYANOQUINOLINE,N#Cc1cc[n]c2ccccc21,242.5,515.65
1-Ethyl-3-nitrobenzene,CCc1cc(ccc1)[N+]([O-])=O,242.5,515.65
1-PHENOXY-2-PROPANOL,CC(O)COc1ccccc1,242.7,515.85
"1H-Inden-1-one, 2,3-dihydro-",O=C1CCc2ccccc21,243,516.15
3-CHLORO-P-TOLUIDINE,Cc1ccc(N)cc1Cl,243,516.15
4-METHOXYANILINE,COc1ccc(N)cc1,243,516.15
P-METHOXYPHENOL,COc1ccc(O)cc1,243,516.15
BENZYLISOTHIOCYANATE,S=C=NCc1ccccc1,243,516.15
"BENZOIC ACID, 3-CHLORO-, ETHYL ESTER",CCOC(=O)c1cccc(Cl)c1,243,516.15
Decanenitrile,CCCCCCCCCC#N,243,516.15
"PICOLINIC ACID, ETHYL ESTER",CCOC(=O)c1cccc[n]1,243,516.15