NAME,SMILES,BP_C,BP_K
M-METHYLSTYRENE,Cc1cc(C=C)ccc1,164,437.15
ETHYL ISOAMYL KETONE,CCC(=O)CCC(C)C,164,437.15
"1-PROPANOL, 3-CHLORO-, ACETATE",CC(=O)OCCCCl,164,437.15
3-CYCLOHEXEN-1-OL,OC1CC=CCC1,164,437.15
2-CYCLOHEXEN-1-OL,O[C@@H]1CCCC=C1,164,437.15
"Silanamine, N,N'-methanetetraylbis(1,1,1-trimeth",C[Si](C)(C)N=C=N[Si](C)(C)C,164,437.15
"1H-PYRROLE, 2-ETHYL-",CCc1ccc[nH]1,164,437.15
"2-HEPTANONE, 3-METHYL-",CCCCC(C)C(C)=O,164,437.15
"Cyclohexanamine, N-ethyl-",CCNC1CCCCC1,164,437.15
"4-HEPTANOL, 2-METHYL-",CC(C)CC(O)CCC,164,437.15
"OCTANE, 2,3-DIMETHYL-",CC(C)C(C)CCCCC,164.3,437.45
2-METHYLCYCLOHEXANOL,CC1CCCCC1O,164.5,437.65
"2,3,5-Trimethylthiophene",Cc1[s]c(C)cc1C,164.5,437.65
"CYCLOHEXANE, 1-METHYL-3-PROPYL-",CC1CCCC(C1)CCC,164.5,437.65
"2,3,4,5-Tetrafluorobenzonitrile",N#Cc1cc(F)c(F)c(F)c1F,164.5,437.65
"1,3,5-TRIMETHYLBENZENE",Cc1cc(C)cc(C)c1,164.7,437.85
"N,N,N',N'-Tetramethyl-1,3-butanediamine",CN(C)CCC(C)N(C)C,165,438.15
"N,N'-DIMETHYLACETAMIDE",CC(=O)N(C)C,165,438.15
3-ETHYLPYRIDINE,CCc1c[n]ccc1,165,438.15
"BUTANE, 2,2'-THIOBIS-",CC(CC)SC(C)CC,165,438.15
2-Octanamine,CCCCCCC(C)N,165,438.15
"Silanediol, dimethyl-, diacetate",C[Si](C)(OC(C)=O)OC(C)=O,165,438.15
GLYCIDYL N-BUTYL ETHER,CCCCOCC1CO1,165,438.15
"PROPANE, 1,2,2,3-TETRACHLORO-",ClC(Cl)(CCl)CCl,165,438.15
1-ISOBUTOXY-2-PROPANOL,CC(C)COCC(C)O,165,438.15
4-ETHYL-3-METHYLHEPTANE,CC(CC)C(CCC)CC,165,438.15
3-ETHYL-4-METHYLHEPTANE,CC(CCC)C(CC)CC,165,438.15
"NONANE, 5-METHYL-",CC(CCCC)CCCC,165.1,438.25
1-ETHYL-2-METHYLBENZENE,Cc1ccccc1CC,165.2,438.35
2-AMINO-2-METHYL-1-PROPANOL,CC(C)(N)CO,165.5,438.65
"2-BUTYNE, 1,4-DICHLORO-",ClCC#CCCl,165.5,438.65
"2-Hexen-1-ol, acetate, (2E)-",CCC/C=C/COC(C)=O,165.5,438.65
"PROPANE, 1,1'-[METHYLENEBIS(OXY)]BIS[2-METHYL-",CC(C)COCOCC(C)C,165.5,438.65
"Arsenous acid, triethyl ester",CCO[As](OCC)OCC,165.5,438.65
Methional,CSCCC=O,165.5,438.65
"2-HEXANOL, 3,4-DIMETHYL-",CC[C@H](C)[C@@H](C)[C@@H](C)O,165.5,438.65
"NONANE, 4-METHYL-",CC(CCC)CCCCC,165.7,438.85
"6,6,6-TRIFLUORO-1-HEXANOL",OCCCCCC(F)(F)F,165.75,438.9
"Methanediamine, N,N,N',N'-tetraethyl-",CCN(CN(CC)CC)CC,165.8,438.95
N-BUTYLBUTYRATE,CCCC(=O)OCCCC,166,439.15
Tropane,CN1[C@@H]2CCC[C@H]1CC2,166,439.15
Iodopentafluorobenzene,Fc1c(F)c(F)c(I)c(F)c1F,166,439.15
Trifluoromethanesulfonic acid,OS(=O)(=O)C(F)(F)F,166,439.15
1-ETHYLCYCLOHEXANOL,CCC1(O)CCCCC1,166,439.15
"HEPTANE, 1-ETHOXY-",CCCCCCCOCC,166,439.15
2-BROMOHEPTANE,CCCCCC(C)Br,166,439.15
2-Heptenal,CCCCC=CC=O,166,439.15
"2,6-OCTADIENE, 2,7-DIMETHYL-",CC(C)=CCCC=C(C)C,166,439.15
"2,2,3,3,4-PENTAMETHYLPENTANE",CC(C)(C)C(C)(C)C(C)C,166.1,439.25
3-Methyl-2-heptanol,CCCCC(C)C(C)O,166.1,439.25
BROMOCYCLOHEXANE,BrC1CCCCC1,166.2,439.35
"1,2-DIBROMOBUTANE",CCC(Br)CBr,166.3,439.45
"3,3-DIETHYLHEXANE",CCCC(CC)(CC)CC,166.3,439.45
"3-Hexenoic acid, ethyl ester",CCOC(=O)CC=CCC,166.5,439.65
"Octane, 3-ethyl-",CCCCCC(CC)CC,166.5,439.65
"1,3-Dichloro-butan-2-one",CC(Cl)C(=O)CCl,166.5,439.65
"4H-PYRAN-4-ONE, TETRAHYDRO-",O=C1CCOCC1,166.5,439.65
"B,B,B-TRICHLORO-T-BUTANOL",CC(C)(O)C(Cl)(Cl)Cl,167,440.15
DIMETHYLCARBAMYL CHLORIDE,CN(C)C(=O)Cl,167,440.15
"3-METHYLENE-7-METHYL-1,6-OCTADIENE  (MYRCENE)",CC(C)=CCCC(=C)C=C,167,440.15
ETHYL HEXANOATE,CCCCCC(=O)OCC,167,440.15
Bicyclo[4.3.0]nonane,"C1CC[C@@H]2CCCC[C@H]21 |&1:3,8|",167,440.15
"ETHANOL, 2,2-DIETHOXY-",CCOC(CO)OCC,167,440.15
"Pyridine, 2-propyl-",CCCc1cccc[n]1,167,440.15
"2-Heptanone, 6-methyl-",CC(C)CCCC(C)=O,167,440.15
"1,9-Decadiene",C=CCCCCCCC=C,167,440.15
"PROPANE, 2,2',2''-[METHYLIDYNETRIS(OXY)]TRIS-",CC(C)OC(OC(C)C)OC(C)C,167,440.15
"1,1,2,3-Tetrachloropropene",ClC(Cl)=C(Cl)CCl,167,440.15
2-METHYLNONANE,CCCCCCCC(C)C,167.1,440.25
"1,3-DIBROMOPROPANE",BrCCCBr,167.3,440.45
3-OCTANONE,CCCCCC(=O)CC,167.5,440.65
"PENTANOIC ACID, PROPYL ESTER",CCCOC(=O)CCCC,167.5,440.65
"Benzene, 1-bromo-2-(trifluoromethyl)-",FC(F)(F)c1ccccc1Br,167.5,440.65
1-FLUORONONANE,CCCCCCCCCF,167.5,440.65
ETHYL TRICHLOROACETATE,CCOC(=O)C(Cl)(Cl)Cl,167.5,440.65
"CYCLOHEXENE, 4-METHYL-1-(1-METHYLETHYL)-, (R)-",CC(C)C1CC[C@@H](C)CC=1,167.5,440.65
"2-PENTEN-1-OL, 2-METHYL-",CCC=C(C)CO,167.5,440.65
4-HYDROXY-4-METHYL-2-PENTANONE,CC(=O)CC(C)(C)O,167.9,441.05
FLUOROACETIC ACID,OC(=O)CF,168,441.15
"BUTANE, 1-ISOTHIOCYANATO-",CCCCN=C=S,168,441.15
Pentan-3-one oxime,CCC(CC)=NO,168,441.15
"1H-PYRROLE, 2,4-DIMETHYL-",Cc1c[nH]c(C)c1,168,441.15
1-Aziridineethanol,OCCN1CC1,168,441.15
1-Chloro-6-fluorohexane,FCCCCCCCl,168,441.15
"1,2,3-TRICHLOROBUTANE",CC(Cl)C(Cl)CCl,168,441.15
4-ETHYLPYRIDINE,CCc1cc[n]cc1,168.3,441.45
"1,3-Propanediamine, N,N-diethyl-",CCN(CCCN)CC,168.5,441.65
"BROMOACETIC ACID, ETHYL ESTER",CCOC(=O)CBr,168.5,441.65
ISOBUTYL ISOVALERATE,CC(C)COC(=O)CC(C)C,168.5,441.65
"BUTANE, 1,4-DICHLORO-2-METHYL-",CC(CCCl)CCl,168.5,441.65
"Propanoic acid, 2-methyl-, 3-methylbutyl ester",CC(C)CCOC(=O)C(C)C,168.5,441.65
AMYL PROPIONATE,CCCCCOC(=O)CC,168.6,441.75
ETHYL SILICATE,CCO[Si](OCC)(OCC)OCC,168.8,441.95
2-ETHYLHEXYLAMINE,CCCCC(CN)CC,169,442.15
"1H-1,4-Diazepine, hexahydro-",C1CCNCCN1,169,442.15
"1,1-Ethanediol, diacetate",CC(OC(C)=O)OC(C)=O,169,442.15
"2-PROPANOL, 1,3-DIMETHOXY-",COCC(O)COC,169,442.15
3-Butenoic acid,C=CCC(O)=O,169,442.15
"Bicyclo[4.1.0]heptane, 3,7,7-trimethyl-, [1S-(1.",C[C@H]1CC[C@@H]2[C@H](C1)C2(C)C,169,442.15
1-Amino-2-butanol,CCC(O)CN,169,442.15
T-BUTYLBENZENE,CC(C)(C)c1ccccc1,169.1,442.25
THIOPHENOL,Sc1ccccc1,169.1,442.25
"1,2,4-TRIMETHYLBENZENE",Cc1cc(C)c(C)cc1,169.3,442.45
"2,6-DIMETHYL-4-HEPTANONE",CC(C)CC(=O)CC(C)C,169.4,442.55
"Ethanol, 2-(ethylamino)-",CCNCCO,169.5,442.65
3-METHYLCYCLOHEXANONE,CC1CC(=O)CCC1,169.5,442.65
DIMETHYLMALONONITRILE,CC(C)(C#N)C#N,169.5,442.65
"3-ETHYL-2,2,3-TRIMETHYLPENTANE",CC(C)(C)C(C)(CC)CC,169.5,442.65
ETHOXYBENZENE,CCOc1ccccc1,169.8,442.95
O-METHYLSTYRENE,Cc1ccccc1C=C,169.8,442.95
DICYCLOPENTADIENE,C1C=CC2C3CC(C=C3)C21,170,443.15
"N-METHYLCARBAMIC ACID, ET ESTER",CCOC(=O)NC,170,443.15
2-CHLOROPYRIDINE,Clc1cccc[n]1,170,443.15
PROPIONIC ANHYDRIDE,CCC(=O)OC(=O)CC,170,443.15
"2,4-DIFLUOROANILINE",Nc1ccc(F)cc1F,170,443.15
"Carbonic acid, dibutyl ester",CCCCOC(=O)OCCCC,170,443.15
4-METHYLCYCLOHEXANONE,CC1CCC(=O)CC1,170,443.15
2-CYCLOHEXENE-1-ONE,O=C1CCCC=C1,170,443.15
"Furan, 2-(bromomethyl)tetrahydro-",BrC[C@@H]1CCCO1,170,443.15
"Methanesulfonyl chloride, trichloro-",O=S(=O)(Cl)C(Cl)(Cl)Cl,170,443.15
"4-Isopropylidene-3,3-dimethyl-oxetan-2-one",CC(C)=C1OC(=O)C1(C)C,170,443.15
Cyclohex-3-enone,O=C1CC=CCC1,170,443.15
"Hexane, 3,3,4,4-tetramethyl-",CC(C)(CC)C(C)(C)CC,170,443.15
"2,2,3-Trimethyl-hexan-3-ol",CC(C)(C)C(C)(O)CCC,170,443.15
2-T-BUTYLPYRIDINE,CC(C)(C)c1cccc[n]1,170,443.15
3-CARENE (DELTA),CC1CC2C(CC=1)C2(C)C,170,443.15
"3-HEPTANOL, 4-METHYL- (VAN8CI9CI)",CC(CCC)C(O)CC,170,443.15
"2-HEPTANOL, 5-METHYL-",CCC(C)CCC(C)O,170,443.15
"1H-PYRROLE, 1-BUTYL-",CCCC[n]1cccc1,170.5,443.65
"Butanoic acid, 3-methyl-2-oxo-",CC(C)C(=O)C(O)=O,170.5,443.65
DIMETHYL PHOSPHITE,COP(=O)OC,170.5,443.65
1-DECENE,CCCCCCCCC=C,170.5,443.65
"(2,2-Diethoxy-ethyl)-dimethyl-amine",CN(C)CC(OCC)OCC,170.5,443.65
"2,4,6-COLLIDINE",Cc1cc(C)[n]c(C)c1,170.6,443.75
ACETONE CYANOHYDRIN,CC(C)(O)C#N,171,444.15
"Undecanal, 2-methyl-",CCCCCCCCCC(C)C=O,171,444.15
"Propane, 1,1,1-triethoxy-",CCC(OCC)(OCC)OCC,171,444.15
OCTANAL,CCCCCCCC=O,171,444.15
ETHANOLAMINE,NCCO,171,444.15
2-METHYLANISOLE,Cc1ccccc1OC,171,444.15
"2-Propanone, 1-(acetyloxy)-",CC(=O)OCC(C)=O,171,444.15
"Propane, 1,1'-thiobis 2-methyl-",CC(C)CSCC(C)C,171,444.15
"2,5-DIMETHYLPYRROLE",Cc1ccc(C)[nH]1,171,444.15
"1,2,5-Trimethylpyrrole",C[n]1c(C)ccc1C,171,444.15
"CYCLOHEXANE, 1,1-DICHLORO-",ClC1(Cl)CCCCC1,171,444.15
4-Acetyl-1-methylcyclohexene,CC1CCC(CC=1)C(C)=O,171,444.15
"Propane, 1-chloro-3-iodo-",ClCCCI,171,444.15
trans-5-Decene,CCCC/C=C/CCCC,171,444.15
"4-HEPTANOL, 2,4-DIMETHYL-",CCCC(C)(O)CC(C)C,171,444.15
ISOBUTYLCYCLOHEXANE,CC(C)CC1CCCCC1,171.3,444.45
1-(1-Isobutoxy-ethoxy)-2-methyl-propane,CC(OCC(C)C)OCC(C)C,171.3,444.45
N-HEXYL ACETATE,CCCCCCOC(C)=O,171.5,444.65
BETA-PHELLANDRENE,CC(C)C1CCC(=C)C=C1,171.5,444.65
TERT-BUTYLCYCLOHEXANE,CC(C)(C)C1CCCCC1,171.5,444.65
"2-Propanol, 1-butoxy-",CCCCOCC(C)O,171.5,444.65
1-Monochloropinacoline,CC(C)(C)C(=O)CCl,171.5,444.65
"PYRAZINE, TRIMETHYL-",Cc1[n]cc(C)[n]c1C,171.5,444.65
METHYL ACETOACETATE,CC(=O)CC(=O)OC,171.7,444.85
alpha-PHELLANDRENE,CC(C)C1CC=C(C)C=C1,172,445.15
TRICHLOROPENTYLSILANE,CCCCC[Si](Cl)(Cl)Cl,172,445.15
3-(CHLOROMETHYL)HEPTANE,CCCCC(CCl)CC,172,445.15
"PHENETOLE, M-FLUORO-",CCOc1cccc(F)c1,172,445.15
2-Chloro-1-nitropropane,CC(Cl)C[N+]([O-])=O,172,445.15
4-METHYLCYCLOHEXANOL,CC1CCC(O)CC1,172,445.15
"3,5-DIMETHYLPYRIDINE",Cc1c[n]cc(C)c1,172,445.15
2-CHLOROOCTANE,CCCCCCC(C)Cl,172,445.15
"1,1,3-Trichloroacetone",O=C(CCl)C(Cl)Cl,172,445.15
ISOCYANATOCYCLOHEXANE,O=C=NC1CCCCC1,172,445.15
"3-HEPTANOL, 5-METHYL-",CC(CC(O)CC)CC,172,445.15
"1,3-BENZODIOXOLE",C1Oc2ccccc2O1,172.5,445.65
DIISOPENTYL ETHER,CC(C)CCOCCC(C)C,172.5,445.65
"1-Hexanol, 2,2-dimethyl-",CCCCC(C)(C)CO,172.5,445.65
1-Chloro-2-nitro-propane,CC(CCl)[N+]([O-])=O,172.5,445.65
"Propanenitrile, 2-(acetyloxy)-",CC(C#N)OC(C)=O,172.5,445.65
"1,3-Propanedithiol",SCCCS,172.9,446.05
"Ethanol, 2- (1-methylethyl)amino -",CC(C)NCCO,173,446.15
"BENZENE, 1-ETHOXY-4-FLUORO-",CCOc1ccc(F)cc1,173,446.15
2-Furancarbonyl chloride,O=C(Cl)c1ccco1,173,446.15
CYCLOHEXYL ACETATE,CC(=O)OC1CCCCC1,173,446.15
3-BROMOPYRIDINE,Brc1c[n]ccc1,173,446.15
p-Menth-4(8)-ene,CC(C)=C1CCC(C)CC1,173,446.15
"Propanenitrile, 3-(dimethylamino)-",CN(C)CCC#N,173,446.15
"3,3-Dimethyl-pentane-2,4-dione",CC(C)(C(C)=O)C(C)=O,173,446.15
"1,3,2-Dioxathiolane, 2-oxide",O=S1OCCO1,173,446.15
"Hexanal, 3,5,5-trimethyl-",CC(CC=O)CC(C)(C)C,173,446.15
"2-Heptanol, 2,6-dimethyl-",CC(C)CCCC(C)(C)O,173,446.15
4-Propyl-piperidine,CCCC1CCNCC1,173,446.15
"CYCLOHEXENE, 4-METHYLENE-1-(1-METHYLETHYL)-",CC(C)C1CCC(=C)CC=1,173.5,446.65
"5-Hepten-2-one, 6-methyl-",CC(C)=CCCC(C)=O,173.5,446.65
"1,4-CINEOL",CC12CCC(CC1)(O2)C(C)C,173.5,446.65
"ETHANE, 1-CHLORO-2-NITRO-",[O-][N+](=O)CCCl,173.5,446.65
"Butanoyl chloride, 4-chloro-",O=C(Cl)CCCCl,173.5,446.65
THIEPANE,C1CCCCCS1,173.5,446.65
CYCLOPROPYLBENZENE,C1CC1c1ccccc1,173.6,446.75
"CYCLOHEXENE, 1-METHYL-4-(1-METHYLETHYL)-, (R)-, Cyclohexene, 1-methyl-4-(1-methylethyl)-",CC(C)[C@@H]1CC=C(C)CC1,173.75,446.9
1-ETHYNYL CYCLOHEXANOL,C#CC1(O)CCCCC1,174,447.15
2-Aminopropanol,CC(N)CO,174,447.15
"1,4-DICHLOROBENZENE",Clc1ccc(Cl)cc1,174,447.15
METHYL HEPTANOATE,CCCCCCC(=O)OC,174,447.15
2-ETHOXYETHYL ACRYLATE,CCOCCOC(=O)C=C,174,447.15
Ethchlorvynol,CCC(O)(C=CCl)C#C,174,447.15
TRIBROMOACETALDEHYDE,O=CC(Br)(Br)Br,174,447.15
"2,4-HEXADIENAL",C/C=C/C=C/C=O,174,447.15
BENZOFURAN,c1cccc2occc21,174,447.15
"1,4-DIAZABICYCLO(2,2,2)OCTANE  (DABCO)",C1CN2CCN1CC2,174,447.15
Ethanesulfonyl chloride,CCS(=O)(=O)Cl,174,447.15
"Propanedioic acid, methyl-, dimethyl ester",CC(C(=O)OC)C(=O)OC,174,447.15
"1,2-Ethanediol, diformate",O=COCCOC=O,174,447.15
1-Decyne,CCCCCCCCC#C,174,447.15
Dimethyl phosphate,COP(O)(=O)OC,174,447.15
6-Methyl-2-heptanol,CC(C)CCC[C@H](C)O,174,447.15
"CYCLOHEXANE, 1-METHYL-3-(1-METHYLETHYLIDENE)-",CC(C)=C1CC(C)CCC1,174,447.15
N-DECANE,CCCCCCCCCC,174.1,447.25
"2-Propanol, 1,3-dichloro-2-methyl-",CC(O)(CCl)CCl,174.5,447.65
"Nitrous acid, octyl ester",CCCCCCCCON=O,174.5,447.65
"PROPANAMIDE, N,N-DIMETHYL-",CCC(=O)N(C)C,174.5,447.65
"2-HEXENOIC ACID, ETHYL ESTER",CCCC=CC(=O)OCC,174.5,447.65
"BENZENE, (BROMOMETHYL)PENTAFLUORO-",Fc1c(F)c(F)c(CBr)c(F)c1F,174.5,447.65
2-CHLOROPHENOL,Oc1ccccc1Cl,174.9,448.05
THIOMORPHOLINE,C1CSCCN1,175,448.15
2-FLUOROANILINE,Nc1ccccc1F,175,448.15
2-FLUOR-BENZALDEHYD,O=Cc1ccccc1F,175,448.15
4-OCTANOL,CCC[C@H](O)CCCC,175,448.15
"CYCLOHEXANONE, 2,6-DIMETHYL-",C[C@H]1CCC[C@H](C)C1=O,175,448.15
"Butanoic acid, 4-chloro-, methyl ester",COC(=O)CCCCl,175,448.15
"Acetic acid, trichloro-, 1-methylethyl ester",CC(C)OC(=O)C(Cl)(Cl)Cl,175,448.15
2-OCTEN-4-OL,CC=C[C@H](O)CCCC,175,448.15
"1,3-DITHIOLANE",C1SCCS1,175,448.15
"2-Methyl-butane-2,3-diol",C[C@@H](O)C(C)(C)O,175,448.15
1-METHYL-2-ETHENYL BENZENE,Cc1ccccc1C(C)=C,175,448.15
"2,6-DIMETHYL-3-HEPTANOL",CC(C)CCC(O)C(C)C,175,448.15
M-CYMENE,Cc1cccc(c1)C(C)C,175.1,448.25
P-METHYLANISOLE,Cc1ccc(cc1)OC,175.5,448.65
3-CHLOROPROPIONITRILE,N#CCCCl,175.5,448.65
OCTAMETHYLTETRASILOXANE,C[Si]1(C)O[Si](C)(C)O[Si](C)(C)O[Si](C)(C)O1,175.8,448.95
"1,3-DICHLORO-2-PROPANOL",OC(CCl)CCl,176,449.15
"LIMONENE, D-LIMONENE, S-(-)-LIMONENE",CC1CCC(CC=1)C(C)=C,176,449.15
ETHYL ETHYLCARBAMATE,CCOC(=O)NCC,176,449.15
"BENZENE, 2-BUTENYL-",CC=CCc1ccccc1,176,449.15
"CYCLOHEXANE, 1-METHYL-2-PROPYL-",CC1CCCCC1CCC,176,449.15
"PIPERIDINE, 1-BUTYL-",CCCCN1CCCCC1,176,449.15
1-Bromo-2-methyl thiophene,Cc1cc[s]c1Br,176,449.15
"1,2,3-TRIMETHYLBENZENE",Cc1c(C)cccc1C,176.1,449.25
"1,8-CINEOLE",CC1(C)OC2(C)CCC1CC2,176.4,449.55
"BUTANOIC ACID, 2-METHYL-",CCC(C)C(O)=O,176.5,449.65
exo-Norborneol,O[C@@H]1C[C@@H]2C[C@H]1CC2,176.5,449.65
ISOVALERIC ACID,CC(C)CC(O)=O,176.5,449.65
"BENZENE, 1,3-DIFLUORO-5-NITRO-",[O-][N+](=O)c1cc(F)cc(F)c1,176.5,449.65
"PROPANEDIOIC ACID, (1-METHYLETHYLIDENE)-, DIETHY",CC(C)=C(C(=O)OCC)C(=O)OCC,176.5,449.65
"P-CYMENE, P-I-PROPYLTOLUENE",Cc1ccc(cc1)C(C)C,176.8,449.95
Isopropoxybenzene,CC(C)Oc1ccccc1,176.8,449.95
N-NITROSODIETHYLAMINE,CCN(CC)N=O,176.9,450.05
"BETA-METHYLSTYRENE, TRANS-1-PHENYL-1-PROPENE",CC=Cc1ccccc1,176.9,450.05
"Heptanoic acid, tridecafluoro-",OC(=O)C(F)(F)C(F)(F)C(F)(F)C(F)(F)C(F)(F)C(F)(F)F,177,450.15
"5-Hepten-2-amine, N,6-dimethyl-",CNC(C)CCC=C(C)C,177,450.15
"Butanoic acid, 2-bromo-, ethyl ester",CCC(Br)C(=O)OCC,177,450.15
O-METHYL CARBAMATE,COC(N)=O,177,450.15
"Carbonochloridic acid, 3-chloropropyl ester",O=C(Cl)OCCCCl,177,450.15
"BENZENE, 3-BUTENYL-",C=CCCc1ccccc1,177,450.15
"CYCLOHEXANOL, 2,2-DIMETHYL-",CC1(C)CCCCC1O,177,450.15
1-HEPTANETHIOL,CCCCCCCS,177,450.15
5-DECYNE,CCCCC#CCCCC,177,450.15
3-DECYNE,CCC#CCCCCCC,177,450.15
4-HYDROXY-2-PENTANONE,C[C@H](O)CC(C)=O,177,450.15
"3-OCTEN-2-OL, 2-METHYL-, (Z)-",CCCC/C=C\C(C)(C)O,177,450.15
"N,N-DIETHYLFORMAMIDE",CCN(CC)C=O,177.5,450.65
"Heptane, 2,2,4,6,6-pentamethyl-",CC(CC(C)(C)C)CC(C)(C)C,177.8,450.95
INDANE,C1CCc2ccccc21,177.9,451.05
"2-Amino-1-butanol, 2-Amino-butan-1-ol",CC[C@@H](N)CO,178,451.15
TETRAHYDROFURFURYL ALCOHOL,OCC1CCCO1,178,451.15
M-TRIFLUOROMETHYLPHENOL,Oc1cc(ccc1)C(F)(F)F,178,451.15
M-FLUOROPHENOL,Oc1cc(F)ccc1,178,451.15
"2-Octanol, 2-methyl-",CCCCCCC(C)(C)O,178,451.15
"Pyridine, 4-(1-methylethyl)-",CC(C)c1cc[n]cc1,178,451.15
2-Methyl-5-bromothiophene,Cc1ccc(Br)[s]1,178,451.15
"2,3-Dibromo-pentane",CC(Br)C(Br)CC,178,451.15
"2,3,5,6-Tetrafluorobenzaldehyde",O=Cc1c(F)c(F)cc(F)c1F,178,451.15
"4-OCTANONE, 7-METHYL-",CCCC(=O)CCC(C)C,178,451.15
"2-Hepten-1-ol, (E)-, 2-HEPTEN-1-OL, (Z)-",CCCC/C=C/CO,178,451.15
1-METHYL-2-ISOPROPYLBENZENE,Cc1ccccc1C(C)C,178.1,451.25
"BENZENE, 1-CHLORO-2-ETHYL-",CCc1ccccc1Cl,178.4,451.55
BIS(2-CHLOROETHYL) ETHER,ClCCOCCCl,178.5,451.65
CYCLOHEPTANONE,O=C1CCCCCC1,178.5,451.65
"2,4-PENTANEDIONE, 3-ETHYL-",CCC(C(C)=O)C(C)=O,178.5,451.65
"Cyclohexanone, 2,2,6-trimethyl-",CC1CCCC(C)(C)C1=O,178.5,451.65
ALPHA-CHLOROTOLUENE,ClCc1ccccc1,179,452.15
BENZALDEHYDE,O=Cc1ccccc1,179,452.15
Cadaverine,NCCCCCN,179,452.15
"Benzene, (dichlorofluoromethyl)-",FC(Cl)(Cl)c1ccccc1,179,452.15
"Propanoic acid, 3-bromo-, ethyl ester",CCOC(=O)CCBr,179,452.15
ETHYL IODOACETATE,CCOC(=O)CI,179,452.15
1-BROMOHEPTANE,CCCCCCCBr,179,452.15
"CYCLOPENTENE, 1-PENTYL-",CCCCCC1CCCC=1,179,452.15
"PROPANOIC ACID, 3-HYDROXY-, METHYL ESTER",COC(=O)CCO,179,452.15
"PYRIDINE, 2,6-DIMETHOXY-",COc1cccc([n]1)OC,179,452.15
"Pentanoic acid, 2-methylpropyl ester",CCCCC(=O)OCC(C)C,179,452.15
"Butanoic acid, 2-methyl-, butyl ester",CCCCOC(=O)C(C)CC,179,452.15
"Butane, 1,1'- methylenebis(oxy) bis-",CCCCOCOCCCC,179.2,452.35
"2-OCTANOL, dl-2-Octanol",CCCCCCC(C)O,179.25,452.4
"BORIC ACID (H3BO3), TRIPROPYL ESTER",CCCOB(OCCC)OCCC,179.5,452.65
"2-Propanone, 1-(2-furanyl)-",CC(=O)Cc1ccco1,179.5,452.65
"Silane, ethenyltris(1-methylethoxy)-",CC(C)O[Si](C=C)(OC(C)C)OC(C)C,179.5,452.65
"DECAHYDRONAPHTHALENE, CIS-BICYCLO[4.4.0]DECANE, TRANS-BICYCLO[4.4.0]DECANE",C1CCCC2CCCCC21,179.53,452.6833333
"2,4-Hexadienoic acid, methyl ester, (E,E)-, 2,4-HEXADIENOIC ACID, METHYL ESTER",C/C=C/C=C/C(=O)OC,180,453.15
"1,8-Dibromohexadecafluorooctane",FC(F)(Br)C(F)(F)C(F)(F)C(F)(F)C(F)(F)C(F)(F)C(F)(F)C(F)(F)Br,180,453.15
ALLYLIDENEDIACETATE,CC(=O)OC(C=C)OC(C)=O,180,453.15
2-PYRIDINECARBOXYALDEHYDE,O=Cc1cccc[n]1,180,453.15
"Hexanoic acid, 4-methyl-, ethyl ester",CC(CCC(=O)OCC)CC,180,453.15
Cyclohexanecarbonyl chloride,O=C(Cl)C1CCCCC1,180,453.15
"Cyclohexanone, 3,3-dimethyl-",CC1(C)CC(=O)CCC1,180,453.15
"CYCLOPENTANE, PENTYL-",CCCCCC1CCCC1,180,453.15
"4-OCTANOL, 4-METHYL-",CC(O)(CCC)CCCC,180,453.15
N-METHYLBENZYLAMINE,CNCc1ccccc1,180.5,453.65
"ETHANONE, 1-CYCLOHEXYL-",CC(=O)C1CCCCC1,180.5,453.65
"Pyrazine, 3-ethyl-2,5-dimethyl-",CCc1[n]c(C)c[n]c1C,180.5,453.65
ACETOACETIC ESTER,CC(=O)CC(=O)OCC,180.8,453.95
"N,N-DIMETHYLBENZYLAMINE",CN(C)Cc1ccccc1,181,454.15
2-METHYL-5-VINYLPYRIDINE,Cc1ccc(C=C)c[n]1,181,454.15
"2,3,4,5,6-Pentafluorobenzyl Alcohol",OCc1c(F)c(F)c(F)c(F)c1F,181,454.15
"3-Furanol, tetrahydro-",OC1COCC1,181,454.15
"Nonane, nonadecafluoro-9-iodo-",FC(F)(F)C(F)(F)C(F)(F)C(F)(F)C(F)(F)C(F)(F)C(F)(F)C(F)(F)C(F)(F)I,181,454.15
1-IODOHEXANE,CCCCCCI,181,454.15
"2,4-Dimethyl-pentan-3-one oxime",CC(C)C(=NO)C(C)C,181,454.15
2-IODOTHIOPHENE,Ic1ccc[s]1,181,454.15
N-ISOBUTYLMORPHOLINE,CC(C)CN1CCOCC1,181,454.15
"Cyclohexane, 1-bromo-3-methyl-",CC1CC(Br)CCC1,181,454.15
"PROPANEDIOIC ACID, DIMETHYL ESTER",COC(=O)CC(=O)OC,181.4,454.55
1-CHLOROOCTANE,CCCCCCCCCl,181.5,454.65
"BENZALDEHYDE, 4-FLUORO-",O=Cc1ccc(F)cc1,181.5,454.65
"THIOPHENE, 2-BUTYL-",CCCCc1ccc[s]1,181.5,454.65
"Silane, trichloro(3-chloropropyl)-",ClCCC[Si](Cl)(Cl)Cl,181.5,454.65
"2-Propanol, 1,3-bis(dimethylamino)-",CN(C)CC(O)CN(C)C,181.5,454.65
METHYLENE IODIDE,ICI,182,455.15
INDENE,C1C=Cc2ccccc21,182,455.15
4-FLUOROANILINE,Nc1ccc(F)cc1,182,455.15
"2,2-Dimethyl-3-oxo-butyric acid ethyl ester",CC(=O)C(C)(C)C(=O)OCC,182,455.15
"4-Heptanol, 4-ethyl-",CCC(O)(CCC)CCC,182,455.15
1-METHYL-3-PROPYLBENZENE,Cc1cccc(CCC)c1,182,455.15
"BENZENE, (1-METHYLENEPROPYL)-",CCC(=C)c1ccccc1,182,455.15
"Butanoic acid, 2-ethyl-3-oxo-, methyl ester",CC(=O)C(CC)C(=O)OC,182,455.15
BENZOXAZOLE,c1[n]c2ccccc2o1,182.5,455.65
"BENZONITRILE, 3-FLUORO-",N#Cc1cccc(F)c1,182.5,455.65
2-Oxo-pentanoic acid ethyl ester,CCCC(=O)C(=O)OCC,182.5,455.65
ISOFLUROPHATE,CC(C)OP(=O)(F)OC(C)C,183,456.15
2-HYDROXYPROPANENITRILE,CC(O)C#N,183,456.15
"Propanoic acid, 2-methyl-, anhydride",CC(C)C(=O)OC(=O)C(C)C,183,456.15
GAMMA-TERPINENE,CC1CC=C(CC=1)C(C)C,183,456.15
Cyclohexanemethanol,OCC1CCCCC1,183,456.15
"Propane, 1,1,3,3-tetramethoxy-",COC(CC(OC)OC)OC,183,456.15
"Acetonitrile, hydroxy-",N#CCO,183,456.15
"Benzene, 1-fluoro-4-iodo-",Fc1ccc(I)cc1,183,456.15
"Acetic acid, chloro-, butyl ester",CCCCOC(=O)CCl,183,456.15
"2-PROPANONE, 1,1,3,3-TETRACHLORO-",O=C(C(Cl)Cl)C(Cl)Cl,183,456.15
ISOPROPYL CARBAMATE,CC(C)OC(N)=O,183,456.15
CYCLOPROPANECARBOXYLIC ACID,OC(=O)C1CC1,183,456.15
"CYCLOHEXANECARBOXYLIC ACID, METHYL ESTER",COC(=O)C1CCCCC1,183,456.15
"ETHANE, 1,2-BIS(METHYLTHIO)-",CSCCSC,183,456.15
"Ethanol, 2-(propylamino)-",CCCNCCO,183,456.15
"1,1,1,3-TETRACHLOROACETONE",O=C(CCl)C(Cl)(Cl)Cl,183,456.15
N-BUTYLBENZENE,CCCCc1ccccc1,183.3,456.45
1-METHYL-4-PROPYLBENZENE,Cc1ccc(CCC)cc1,183.4,456.55
"1,3,5-Trifluoro-2-nitrobenzene",[O-][N+](=O)c1c(F)cc(F)cc1F,183.5,456.65
1-Methyl-cycloheptanol,CC1(O)CCCCCC1,183.5,456.65
"Propanoic acid, 2,3-dichloro-, ethyl ester",CCOC(=O)C(Cl)CCl,183.5,456.65
"4,7,7-Trimethyl-6-oxa-bicyclo[3.2.1]oct-3-ene",CC1=CC[C@@H]2CC1OC2(C)C,183.5,456.65
"1,3-DIMETHYL-5-ETHYLBENZENE",CCc1cc(C)cc(C)c1,183.6,456.75
P-DIETHYLBENZENE,CCc1ccc(CC)cc1,183.7,456.85
M-BROMOTOLUENE,Cc1cc(Br)ccc1,183.7,456.85
"BENZENE, 1-CHLORO-2,4-DIMETHYL-",Cc1cc(C)c(Cl)cc1,184,457.15
"Ethanol, 2-(ethylthio)-",CCSCCO,184,457.15
"BENZENE, 1-ETHOXY-2-METHYL-",Cc1ccccc1OCC,184,457.15
"PYRIDINE, 2,3,5-TRIMETHYL-",Cc1c[n]c(C)c(C)c1,184,457.15
"BUTANOIC ACID, 4-CHLORO-, ETHYL ESTER",CCOC(=O)CCCCl,184,457.15