NAME,SMILES,BP_C,BP_K
2-Bromo-benzoyl chloride,O=C(Cl)c1ccccc1Br,243,516.15
"Benzoic acid, 2-chloro-, ethyl ester",CCOC(=O)c1ccccc1Cl,243,516.15
ISOQUINOLINE,c1[n]ccc2ccccc21,243.2,516.35
P-PHENACETIN,CC(=O)Nc1ccc(cc1)OCC,243.5,516.65
"1,1,2,2-TETRABROMOETHANE",BrC(Br)C(Br)Br,243.5,516.65
PHENYL HYDRAZINE,NNc1ccccc1,243.5,516.65
"BENZALDEHYDE, 2-METHOXY-",COc1ccccc1C=O,243.5,516.65
N-BUTYLANILINE,CCCCNc1ccccc1,243.5,516.65
"2,2-Diallyl-malonic acid diethyl ester",CCOC(=O)C(CC=C)(CC=C)C(=O)OCC,243.5,516.65
"Benzeneethanol, 2-methyl-",Cc1ccccc1CCO,243.5,516.65
M-CHLOROACETOPHENONE,CC(=O)c1cccc(Cl)c1,244,517.15
DECYL ACETATE,CCCCCCCCCCOC(C)=O,244,517.15
M-METHOXYPHENOL,COc1cccc(O)c1,244,517.15
"1-Cyclohexene-1-methanol, 4-(1-methylethenyl)-",CC(=C)C1CCC(CO)=CC1,244,517.15
"Benzene, 1,2,4-tris(1-methylethyl)-",CC(C)c1ccc(cc1C(C)C)C(C)C,244,517.15
PROPYLENE GLYCOL MONOPHENYL ETHER,CC(CO)Oc1ccccc1,244,517.15
"Benzene, 1,3-dimethoxy-5-methyl-",Cc1cc(cc(c1)OC)OC,244,517.15
HEPTYLCYCLOHEXANE,CCCCCCCC1CCCCC1,244,517.15
2-METHYLQUINOXALINE,Cc1c[n]c2ccccc2[n]1,244,517.15
o-Tolyl-acetonitrile,Cc1ccccc1CC#N,244,517.15
"NAPHTHALENE, 6-ETHYL-1,2,3,4-TETRAHYDRO-",CCc1cc2CCCCc2cc1,244,517.15
"1,2,4,5-TETRACHLOROBENZENE",Clc1cc(Cl)c(Cl)cc1Cl,244.5,517.65
"Benzoic acid, 2-hydroxy-5-methyl-, methyl ester",Cc1ccc(O)c(c1)C(=O)OC,244.5,517.65
1-METHYLNAPHTHALENE,Cc1cccc2ccccc21,244.7,517.85
2-METHYL-3-CHLOROANILINE,Cc1c(N)cccc1Cl,245,518.15
"BUTANOIC ACID, 3-METHYL-, PHENYLMETHYL ESTER",CC(C)CC(=O)OCc1ccccc1,245,518.15
PHENYL GLYDIDYL ETHER,C(Oc1ccccc1)C1CO1,245,518.15
2-PHENOXYETHANOL,OCCOc1ccccc1,245,518.15
DIETHYLENE GLYCOL MONOBUTYL ETHER ACETATE,CCCCOCCOCCOC(C)=O,245,518.15
"Phenol, 5-methyl-2-(1-methylethyl)-, acetate",Cc1ccc(C(C)C)c(c1)OC(C)=O,245,518.15
DODECAMETHYLCYCLOHEXASILOXANE,C[Si]1(C)O[Si](C)(C)O[Si](C)(C)O[Si](C)(C)O[Si](C)(C)O[Si](C)(C)O1,245,518.15
"2,4-DICHLOROANILINE",Nc1ccc(Cl)cc1Cl,245,518.15
"QUINOLINE, 4-METHOXY-",COc1cc[n]c2ccccc12,245,518.15
"Ethanone, 1-phenyl-, oxime",CC(=NO)c1ccccc1,245,518.15
PYRROLIDONE,O=C1CCCN1,245,518.15
"Benzene, 1,4-bis(bromomethyl)-",BrCc1ccc(CBr)cc1,245,518.15
"2H-Pyran-2-one, 4,6-dimethyl-",CC1C=C(C)OC(=O)C=1,245,518.15
METHYL PHENOXYACETATE,COC(=O)COc1ccccc1,245,518.15
TETRAMETHYLTHIOUREA,CN(C)C(=S)N(C)C,245,518.15
1-Benzylpiperidine,C(c1ccccc1)N1CCCCC1,245,518.15
"Ethanone, 2-methoxy-1-phenyl-",COCC(=O)c1ccccc1,245,518.15
4-CHLOROBENZOTRICHLORIDE,Clc1ccc(cc1)C(Cl)(Cl)Cl,245,518.15
CYCLOHEXYLACETIC ACID,OC(=O)CC1CCCCC1,245,518.15
"Ethanone, 1-(2-hydroxy-4-methylphenyl)-",Cc1ccc(c(O)c1)C(C)=O,245,518.15
"PIPERIDINE, 1-NITRO-",[O-][N+](=O)N1CCCCC1,245,518.15
"NAPHTHALENE, 5-ETHYL-1,2,3,4-TETRAHYDRO-",CCc1cccc2CCCCc21,245,518.15
"1-BROMO-2,3-DICHLOROBENZENE",Clc1cccc(Br)c1Cl,245,518.15
"Pentanoic acid, heptyl ester",CCCCC(=O)OCCCCCCC,245.2,518.35
"Heptanoic acid, pentyl ester",CCCCCCC(=O)OCCCCC,245.4,518.55
2-CHLORO-1-NITROBENZENE,[O-][N+](=O)c1ccccc1Cl,245.5,518.65
TETRADECAMETHYLHEXASILOXANE,C[Si](C)(C)O[Si](C)(C)O[Si](C)(C)O[Si](C)(C)O[Si](C)(C)O[Si](C)(C)C,245.5,518.65
CATECHOL,Oc1ccccc1O,245.5,518.65
"QUINOLINE, 2-ETHYL-",CCc1ccc2ccccc2[n]1,245.5,518.65
"BENZALDEHYDE, 3-ETHOXY-",CCOc1cccc(C=O)c1,245.5,518.65
"4-CHLORO-3,5-DIMETHYL PHENOL",Cc1cc(O)cc(C)c1Cl,246,519.15
3-PHENYL-2-PROPENAL,O=CC=Cc1ccccc1,246,519.15
"Benzene, 1,4-diethoxy-",CCOc1ccc(cc1)OCC,246,519.15
"1-Methyl-1,2,3,4-tetrahydro-quinoline",CN1CCCc2ccccc12,246,519.15
9-Methyl-9-azabicyclo[3.3.1]nonan-3-one,CN1C2CC(=O)CC1CCC2,246,519.15
"Benzoyl chloride, 4-bromo-",O=C(Cl)c1ccc(Br)cc1,246,519.15
"1,3-Diformylbenzene",O=Cc1cc(ccc1)C=O,246,519.15
"Hexanoic acid, hexyl ester",CCCCCCOC(=O)CCCCC,246,519.15
"1,2,3-Trichloro-5-methyl-benzene",Cc1cc(Cl)c(Cl)c(Cl)c1,246,519.15
2-METHYLQUINOLINE,Cc1ccc2ccccc2[n]1,246.5,519.65
"BENZOIC ACID, 2-METHOXY-, METHYL ESTER",COC(=O)c1ccccc1OC,246.5,519.65
"ETHANONE, 1-(2,4,5-TRIMETHYLPHENYL)-",Cc1cc(C(C)=O)c(C)cc1C,246.5,519.65
"Ethanone, 1-(3,4-dimethylphenyl)-",Cc1cc(ccc1C)C(C)=O,246.5,519.65
METHYL DECYL KETONE,CCCCCCCCCCC(C)=O,246.5,519.65
Acetic acid 5-isopropyl-2-methyl-phenyl ester,Cc1ccc(cc1OC(C)=O)C(C)C,246.5,519.65
"2,4,6-Trimethyl-[1,3,5]trithiane",CC1SC(C)SC(C)S1,246.5,519.65
NICOTINE,CN1CCC[C@H]1c1c[n]ccc1,247,520.15
4-NITRO-M-XYLENE,Cc1cc(C)c(cc1)[N+]([O-])=O,247,520.15
"2,4,5-TRICHLOROPHENOL",Oc1cc(Cl)c(Cl)cc1Cl,247,520.15
"Benzeneacetic acid, 2-methylpropyl ester",CC(C)COC(=O)Cc1ccccc1,247,520.15
N-METHYLDIETHANOLAMINE,CN(CCO)CCO,247,520.15
"Ethanol, 2,2'-(ethylimino)bis-",CCN(CCO)CCO,247,520.15
"Phenol, 2,3,5,6-tetramethyl-",Cc1c(O)c(C)c(C)cc1C,247,520.15
"1,3-Dioxane, 4-phenyl-",C1OC(CCO1)c1ccccc1,247,520.15
"1,3-Benzenedimethanamine",NCc1cc(CN)ccc1,247,520.15
"1H-Pyrrole, 1-(phenylmethyl)-",C(c1ccccc1)[n]1cccc1,247,520.15
ISOPHORONE DIAMINE,CC1(C)CC(N)CC(C)(C1)CN,247,520.15
ETHYL B-PHENYLPROPIONATE,CCOC(=O)CCc1ccccc1,247.2,520.35
"1,1,1,2,2,3,3-heptachloropropane",ClC(Cl)(Cl)C(Cl)(Cl)C(Cl)Cl,247.5,520.65
8-METHYLQUINOLINE,Cc1cccc2ccc[n]c21,247.5,520.65
2-Hydroxy-4-methoxybenzaldehyde,COc1ccc(O)c(C=O)c1,247.5,520.65
"1-Propanone, 2-bromo-1-phenyl-",CC(Br)C(=O)c1ccccc1,247.5,520.65
"3,4-DICHLOROBENZALDEHYDE",O=Cc1cc(Cl)c(Cl)cc1,247.5,520.65
"2,4-DICHLOROBENZYLCHLORIDE",ClCc1ccc(Cl)cc1Cl,248,521.15
"1,3-DIOXOLAN-2-ONE",O=C1OCCO1,248,521.15
"2-PYRROLIDINONE, 5-METHYL-",C[C@H]1CCC(=O)N1,248,521.15
"10-Undecenoic acid, methyl ester",COC(=O)CCCCCCCCC=C,248,521.15
P-ANISALDEHYDE,COc1ccc(C=O)cc1,248,521.15
"1,1'-Biphenyl, 2-fluoro-",Fc1ccccc1-c1ccccc1,248,521.15
DIETHYL SULFONE,CCS(=O)(=O)CC,248,521.15
"Benzaldehyde, 2-ethoxy-",CCOc1ccccc1C=O,248,521.15
"ISOQUINOLINE, 1-METHYL-",Cc1[n]ccc2ccccc21,248,521.15
1-Methyl-3-cyanomethylbenzene,Cc1cc(CC#N)ccc1,248,521.15
3-Methoxy-benzoic acid methyl ester,COC(=O)c1cc(ccc1)OC,248,521.15
"BENZENAMINE, 4-METHOXY-2-METHYL-",Cc1cc(ccc1N)OC,248.5,521.65
Undec-9-en-1-ol,CC=CCCCCCCCCO,248.5,521.65
alpha-COPAENE,CC(C)[C@H]1CC[C@]2(C)[C@@H]3[C@H]1[C@H]2CC=C3C,248.5,521.65
METHOXY TRIETHYLENE GLYCOL,COCCOCCOCCO,249,522.15
Perfluorododecanoic acid,OC(=O)C(F)(F)C(F)(F)C(F)(F)C(F)(F)C(F)(F)C(F)(F)C(F)(F)C(F)(F)C(F)(F)C(F)(F)C(F)(F)F,249,522.15
3H-Benzofuran-2-one,O=C1Cc2ccccc2O1,249,522.15
O-METHOXYBENZYL ALCOHOL,COc1ccccc1CO,249,522.15
ISOQUINOLONE-3-METHYL,Cc1cc2ccccc2c[n]1,249,522.15
"2-(1,1-DIMETHYLETHYL)-4,6-DIMETHYLPHENOL",Cc1cc(c(O)c(C)c1)C(C)(C)C,249,522.15
"Propane, 1,1,1,2,3,3,3-heptachloro-",ClC(C(Cl)(Cl)Cl)C(Cl)(Cl)Cl,249,522.15
"QUINOXALINE, 6-METHYL-",Cc1cc2[n]cc[n]c2cc1,249,522.15
"Benzaldehyde, 4-ethoxy-",CCOc1ccc(C=O)cc1,249,522.15
"Benzene, 1-chloro-2-methyl-4-nitro-",Cc1cc(ccc1Cl)[N+]([O-])=O,249,522.15
2-Acetyl-4-isopropyltoluene,Cc1ccc(cc1C(C)=O)C(C)C,249.5,522.65
"BENZENE, 1-CHLORO-4-ISOTHIOCYANATO-",S=C=Nc1ccc(Cl)cc1,249.5,522.65
1-CHLORO-3-ISOTHIOCYANATO-BENZENE,S=C=Nc1cccc(Cl)c1,249.5,522.65
"1,2,3-PROPANETRIOL TRINITRATE",[O-][N+](=O)OC(CO[N+]([O-])=O)CO[N+]([O-])=O,250,523.15
"Propanoic acid, 2-methyl-, 2-phenylethyl ester",CC(C)C(=O)OCCc1ccccc1,250,523.15
CINNAMYL ALCOHOL,OCC=Cc1ccccc1,250,523.15
"Benzenepropanol, formate",O=COCCCc1ccccc1,250,523.15
"Pentanedioic acid, 3-oxo-, diethyl ester",CCOC(=O)CC(=O)CC(=O)OCC,250,523.15
DIISOPROPANOLAMINE,CC(O)CNCC(C)O,250,523.15
10-Undecen-1-ol,C=CCCCCCCCCCO,250,523.15
Decaprenoic acid,CC(C)=CCCC(C)=CC(O)=O,250,523.15
"1,6-HEXANEDIOL",OCCCCCCO,250,523.15
"2(1H)-PYRIDINONE, 1-METHYL-",CN1C=CC=CC1=O,250,523.15
4-Iodophenetole,CCOc1ccc(I)cc1,250,523.15
B-NITROETHYL BENZENE,[O-][N+](=O)CCc1ccccc1,250,523.15
11-Hexadecenal,CCCC/C=C\CCCCCCCCCC=O,250,523.15
BUTYL BENZOATE,CCCCOC(=O)c1ccccc1,250.3,523.45
"2,3,5,6-TETRACHLORPYRIDINE",Clc1[n]c(Cl)c(Cl)cc1Cl,250.5,523.65
"2,5-DICHLOROANILINE",Nc1cc(Cl)ccc1Cl,251,524.15
"1,2-DIMETHYL-4-NITROBENZENE",Cc1cc(ccc1C)[N+]([O-])=O,251,524.15
"1,2-BENZENEDIOL, 4-METHYL-",Cc1cc(O)c(O)cc1,251,524.15
M-METHOXYANILINE,COc1cccc(N)c1,251,524.15
"2,4-TOLUENE DIISOCYANATE",Cc1ccc(cc1N=C=O)N=C=O,251,524.15
"1,2,3,4-TETRAHYDROQUINOLINE",C1CCNc2ccccc21,251,524.15
"GAMMA-2,6-DIMETHYLPYRONE",CC1=CC(=O)C=C(C)O1,251,524.15
2-Hydroxy-1-phenyl-propan-1-one,C[C@@H](O)C(=O)c1ccccc1,251,524.15
9-HEPTADECANONE,CCCCCCCCC(=O)CCCCCCCC,251.5,524.65
"PROPANEDIOIC ACID, DIBUTYL ESTER",CCCCOC(=O)CC(=O)OCCCC,251.5,524.65
1-p-Tolyl-butan-1-one,Cc1ccc(cc1)C(=O)CCC,251.5,524.65
"2-Propenal, 2-methyl-3-phenyl-",CC(=Cc1ccccc1)C=O,251.6,524.75
BENZENESULFONYL CHLORIDE,O=S(=O)(Cl)c1ccccc1,252,525.15
"2-Propen-1-ol, 3-phenyl-, formate",O=COCC=Cc1ccccc1,252,525.15
3-AMINOPYRIDINE,Nc1c[n]ccc1,252,525.15
TRIPROPYL PHOSPHATE,CCCOP(=O)(OCCC)OCCC,252,525.15
4-BROMOIODOBENZENE,Brc1ccc(I)cc1,252,525.15
"Benzene, 1-bromo-3-iodo-",Brc1cc(I)ccc1,252,525.15
"2,3-DICHLOROANILINE",Nc1cccc(Cl)c1Cl,252,525.15
METHYL 2-BROMOBENZOATE,COC(=O)c1ccccc1Br,252,525.15
2-Cyanobenzyl chloride,N#Cc1ccccc1CCl,252,525.15
"NAPHTHALENE, 1,2,3,4-TETRAHYDRO-6,7-DIMETHYL-",Cc1cc2CCCCc2cc1C,252,525.15
2-BROMOBENZONITRILE,N#Cc1ccccc1Br,252,525.15
1-Chloro-4-(diethylamino)benzene,CCN(CC)c1ccc(Cl)cc1,252,525.15
"NAPHTHALENE, 1,2,3,4-TETRAHYDRO-5,6-DIMETHYL-",Cc1ccc2CCCCc2c1C,252,525.15
"Benzyl alcohol, m-iodo-",OCc1cccc(I)c1,252,525.15
"4-UNDECANONE, 7-ETHYL-2-METHYL-",CC(C)CC(=O)CCC(CCCC)CC,252.5,525.65
"1H-INDOLE, 1-ETHYL-",CC[n]1ccc2ccccc12,252.5,525.65
"2,6-Octadien-1-ol, 3,7-dimethyl-, propanoate, (2",CC(C)=CCC/C(/C)=C/COC(=O)CC,253,526.15
ISOSAFROLE,CC=Cc1cc2OCOc2cc1,253,526.15
"2,6-DI-T-BUTYLPHENOL",CC(C)(C)c1cccc(c1O)C(C)(C)C,253,526.15
4-FLUOROBIPHENYL,Fc1ccc(cc1)-c1ccccc1,253,526.15
"1,3-Dioxane, 2-phenyl-",C1CCOC(O1)c1ccccc1,253,526.15
5-INDANOL,Oc1cc2CCCc2cc1,253,526.15
Undecanenitrile,CCCCCCCCCCC#N,253,526.15
2-Ethoxycarbonyl-malonic acid diethyl ester,CCOC(=O)C(C(=O)OCC)C(=O)OCC,253,526.15
"1,4-Dichloro-2-iodo-benzene",Clc1cc(I)c(Cl)cc1,253,526.15
2-Methyl-5-ethoxyaniline,Cc1ccc(cc1N)OC,253,526.15
TETRADECANE,CCCCCCCCCCCCCC,253.5,526.65
INDOLE,c1cccc2[nH]ccc21,254,527.15
"1,3-Benzenediol, 4,6-dichloro-",Oc1cc(O)c(Cl)cc1Cl,254,527.15
"Cyclopentanecarboxylic acid, 1,2,2,3-tetramethyl",CC1(C)C(C)CCC1(C)C(O)=O,254,527.15
"1,2,3,4-TETRACHLOROBENZENE",Clc1ccc(Cl)c(Cl)c1Cl,254,527.15
P-ISOPROPYLACETOPHENONE,CC(=O)c1ccc(cc1)C(C)C,254,527.15
DIETHYL PIMELATE,CCOC(=O)CCCCCC(=O)OCC,254,527.15
"2,4,5-TRICHLOROANISOLE",COc1cc(Cl)c(Cl)cc1Cl,254,527.15
1-tert-Butyl-3-nitro-benzene,CC(C)(C)c1cc(ccc1)[N+]([O-])=O,254,527.15
NONANOIC ACID,CCCCCCCCC(O)=O,254.5,527.65
"4,4'-DIFLUOROBIPHENYL",Fc1ccc(cc1)-c1ccc(F)cc1,254.5,527.65
2-Bromo-benzoic acid ethyl ester,CCOC(=O)c1ccccc1Br,254.5,527.65
"Benzoic acid, 2-(methylamino)-, methyl ester",CNc1ccccc1C(=O)OC,255,528.15
"(1R,2S)-(-)-EPHEDRINE",C[C@H](NC)[C@H](O)c1ccccc1,255,528.15
"2,6-DIBROMOPHENOL",Oc1c(Br)cccc1Br,255,528.15
"N,N'-Dipropylurea",CCCNC(=O)NCCC,255,528.15
Hexanamide,CCCCCC(N)=O,255,528.15
DICHLOROPHENYLARSINE,Cl[As](Cl)c1ccccc1,255,528.15
HEXAMETHYLENE DIISOCYANATE,O=C=NCCCCCCN=C=O,255,528.15
"Butanedioic acid, acetyl-, diethyl ester",CC(=O)C(CC(=O)OCC)C(=O)OCC,255,528.15
3-Methyl-1-phenylpyrazole,Cc1cc[n]([n]1)-c1ccccc1,255,528.15
4-Bromopyrazole,Brc1c[nH][n]c1,255,528.15
1-Chloro-3-(trichloromethyl)benzene,Clc1cccc(c1)C(Cl)(Cl)Cl,255,528.15
"2,3-DIAMINOTOLUENE",Cc1cccc(N)c1N,255,528.15
"2,8-Dimethylquinoline",Cc1ccc2cccc(C)c2[n]1,255.3,528.45
"1-Cyclopentene-1-carboxylic acid, 2,3,3-trimethy",CC1=C(CCC1(C)C)C(O)=O,255.5,528.65
(4-Methoxy-phenyl)-acetaldehyde,COc1ccc(CC=O)cc1,255.5,528.65
3-Bromo-4-methylaniline,Cc1ccc(N)cc1Br,255.5,528.65
DICYCLOHEXYLAMINE,C1CCCCC1NC1CCCCC1,255.8,528.95
ETHOXYTRIETHYLENE GLYCOL,CCOCCOCCOCCO,255.8,528.95
2-CHLORONAPHTHALENE,Clc1cc2ccccc2cc1,256,529.15
DIETHYLENE GLYCOL DIBUTYL ETHER,CCCCOCCOCCOCCCC,256,529.15
"P-ANISIC ACID, METHYL ESTER",COC(=O)c1ccc(cc1)OC,256,529.15
METHYL ANTHRANILATE,COC(=O)c1ccccc1N,256,529.15
4-BROMO-1-NITROBENZENE,[O-][N+](=O)c1ccc(Br)cc1,256,529.15
"1,1'-BIPHENYL, 2,2'-DIMETHYL-",Cc1ccccc1-c1ccccc1C,256,529.15
"BUTANEDIOIC ACID, BIS(1-METHYLPROPYL) ESTER",CC(CC)OC(=O)CCC(=O)OC(C)CC,256,529.15
5-Chloroquinoline,Clc1cccc2[n]cccc21,256,529.15
DELTA-VALEROLACTAM,O=C1CCCCN1,256,529.15
"4-Methyl-4-phenyl-[1,3]dioxane",CC1(CCOCO1)c1ccccc1,256,529.15
"PHENOL, 2,6-BIS(1-METHYLETHYL)-",CC(C)c1cccc(C(C)C)c1O,256,529.15
"BENZENE, 1-BROMO-3-ISOTHIOCYANATO-",S=C=Nc1cccc(Br)c1,256,529.15
"2,6-Dipropyl-phenol",CCCc1cccc(CCC)c1O,256,529.15
3-Bromo-5-chlorophenol,Oc1cc(Br)cc(Cl)c1,256,529.15
BIPHENYL,c1ccccc1-c1ccccc1,256.1,529.25
"BENZONITRILE, 4-METHOXY-",COc1ccc(cc1)C#N,256.5,529.65
"Benzeneacetic acid, .alpha.-oxo-, ethyl ester",CCOC(=O)C(=O)c1ccccc1,256.5,529.65
"2-Propenoyl chloride, 3-phenyl-",O=C(Cl)C=Cc1ccccc1,257,530.15
IMIDAZOLE,c1[nH]cc[n]1,257,530.15
"Benzene, 1-bromo-2-iodo-",Brc1ccccc1I,257,530.15
"PIPERIDINE, 4-PHENYL-",C1CC(CCN1)c1ccccc1,257,530.15
3-Phenyl-piperidine,C1NCCC[C@H]1c1ccccc1,257,530.15
"Benzenamine, 2,6-bis(1-methylethyl)-",CC(C)c1cccc(C(C)C)c1N,257,530.15
"Benzene, 1,2-dichloro-4-(dichloromethyl)-",ClC(Cl)c1cc(Cl)c(Cl)cc1,257,530.15
1-UNDECANETHIOL,CCCCCCCCCCCS,257.4,530.55
"2,3-DICHLORONITROBENZENE",[O-][N+](=O)c1cccc(Cl)c1Cl,257.5,530.65
"2,6-DI-SEC-BUTYLPHENOL",CC(CC)c1cccc(C(C)CC)c1O,257.5,530.65
7-METHYLQUINOLINE,Cc1cc2[n]cccc2cc1,257.6,530.75
P-METHOXYACETOPHENONE,CC(=O)c1ccc(cc1)OC,258,531.15
"1,4-Benzenedicarbonyl dichloride",O=C(Cl)c1ccc(cc1)C(=O)Cl,258,531.15
LONGIFOLENE,CC1(C)CCC[C@@]2(C)[C@@H]3CC[C@@H]([C@H]13)C2=C,258,531.15
"2-Cyclopenten-1-one, 3-methyl-2-(2-pentenyl)-, (",CC1CCC(=O)C=1C/C=C\CC,258,531.15
M-NITROANISOLE,COc1cc(ccc1)[N+]([O-])=O,258,531.15
"N-METHYL-1,4-BENZENEDIAMINE",CNc1ccc(N)cc1,258,531.15
"Phosphonic dichloride, phenyl-",O=P(Cl)(Cl)c1ccccc1,258,531.15
2-ETHYLNAPHTHALENE,CCc1cc2ccccc2cc1,258,531.15
2-Phenoxy-butyric acid,CCC(Oc1ccccc1)C(O)=O,258,531.15
5-Chloro-3-methyl-1H-pyrazole,Cc1cc(Cl)[nH][n]1,258,531.15
"BENZONITRILE, 4-ETHOXY-",CCOc1ccc(cc1)C#N,258,531.15
CHLOROTHYMOL,Cc1cc(O)c(cc1Cl)C(C)C,258.5,531.65
"2,4-DICHLORONITROBENZENE",[O-][N+](=O)c1ccc(Cl)cc1Cl,258.5,531.65
"3,4-Dimethyl-6-tert-butylphenol",Cc1cc(c(O)cc1C)C(C)(C)C,258.5,531.65
6-METHYLQUINOLINE,Cc1cc2ccc[n]c2cc1,258.6,531.75
1-ETHYLNAPHTHALENE,CCc1cccc2ccccc21,258.6,531.75
1-CHLORONAPHTHALENE,Clc1cccc2ccccc21,259,532.15
DODECANOL,CCCCCCCCCCCCO,259,532.15
O-TOLUIC ACID,Cc1ccccc1C(O)=O,259,532.15
"BENZENE, 1,2,4,5-TETRAKIS(1-METHYLETHYL)-",CC(C)c1cc(C(C)C)c(cc1C(C)C)C(C)C,259,532.15
CYCLOHEPTANECARBOXYLATE,OC(=O)C1CCCCCC1,259,532.15
4-(2-HYDROXYETHYL)-CHLORBENZOL,OCCc1ccc(Cl)cc1,259,532.15
3-Methoxyphenyl methyl ketone,CC(=O)Cc1cc(ccc1)OC,259,532.15
"1,2,3-PROPANETRIOL, DIACETATE",CC(=O)OCC(CO)OC(C)=O,259,532.15
1-(3-Methoxy-phenyl)-propan-1-one,CCC(=O)c1cc(ccc1)OC,259,532.15
P-METHOXYBENZYL ALCOHOL,COc1ccc(CO)cc1,259.1,532.25
"Benzene, 1,4-diisocyanato-",O=C=Nc1ccc(cc1)N=C=O,260,533.15
"N,N-DIMETHYLDODECYLAMINE",CCCCCCCCCCCCN(C)C,260,533.15
1-CHLORODODECANE,CCCCCCCCCCCCCl,260,533.15
"ETHANOL, 2- 2-(HEXYLOXY)ETHOXY -",CCCCCCOCCOCCO,260,533.15
2-CHLORO-4-NITROTOLUENE,Cc1ccc(cc1Cl)[N+]([O-])=O,260,533.15
Tetradecanal,CCCCCCCCCCCCCC=O,260,533.15
"1,2-Dihydro-2,2,4-trimethylquinoline",CC1=CC(C)(C)Nc2ccccc12,260,533.15
"Acetamide, N-ethyl-N-phenyl-",CC(=O)N(CC)c1ccccc1,260,533.15
"o-Acetotoluidide, N-methyl-",Cc1ccccc1N(C)C(C)=O,260,533.15
"FORMAMIDE, N-CYCLOHEXYL-",O=CNC1CCCCC1,260,533.15
"Nonane, 1,9-dichloro-",ClCCCCCCCCCCl,260,533.15
"2,6-DIAMINOTOLUENE",Cc1c(N)cccc1N,260,533.15
P-BROMOPHENYLUREA,NC(=O)Nc1ccc(Br)cc1,260,533.15
"Thiophene, 2,3,5-tribromo-",Brc1[s]c(Br)cc1Br,260,533.15
2-PYRIDINEPROPANOL,OCCCc1cccc[n]1,260.2,533.35
"Benzene, 1-chloro-4-methyl-2-nitro-",Cc1cc(c(Cl)cc1)[N+]([O-])=O,261,534.15
"1-BUTANOL, 3-METHYL-, BENZOATE",CC(C)CCOC(=O)c1ccccc1,261,534.15
SUCCINIC ANHYDRIDE,O=C1CCC(=O)O1,261,534.15
TRIDECAN-7-ONE,CCCCCCC(=O)CCCCCC,261,534.15
ALPHA-PHENYLPROPIONIC ACID,CC(C([O-])=O)c1ccccc1,261,534.15
"3,5-DICHLOROANILINE",Nc1cc(Cl)cc(Cl)c1,261,534.15
BENZYLACETONITRILE,N#CCCc1ccccc1,261,534.15
"BENZENE, (CYCLOHEXYLOXY)-",C1CCCCC1Oc1ccccc1,261,534.15
3-Ethyl-3-methyl-pentanedioic acid,CCC(C)(CC(O)=O)CC(O)=O,261,534.15
Hexanoic acid heptyl ester,CCCCCCCOC(=O)CCCCC,261,534.15
"BENZOIC ACID, 3-BROMO-, ETHYL ESTER",CCOC(=O)c1cccc(Br)c1,261,534.15
"1,3-Butanedione, 1-phenyl-",CC(=O)CC(=O)c1ccccc1,261.5,534.65
"1-Hexanamine, N,N-dihexyl-",CCCCCCN(CCCCCC)CCCCCC,261.7,534.85
"1,3-Propanediol, 2-butyl-2-ethyl-",CCCCC(CO)(CO)CC,262,535.15
4-METHYLQUINOLINE,Cc1cc[n]c2ccccc21,262,535.15
"2,6-DIMETHYLNAPHTHALENE",Cc1cc2ccc(C)cc2cc1,262,535.15
"1,7-Heptanediol",OCCCCCCCO,262,535.15
"S-TRIAZINE-2,4,6-TRICARBONITRILE",N#Cc1[n]c(C#N)[n]c(C#N)[n]1,262,535.15
P-TERT-AMYLPHENOL,CC(C)(CC)c1ccc(O)cc1,262.5,535.65
"Benzoyl chloride, 4-methoxy-",COc1ccc(cc1)C(=O)Cl,262.5,535.65
"METHYLEUGENOL, 4-Allyl-1,2-dimethoxy-benzene",COc1ccc(CC=C)cc1OC,262.6,535.75
PIPERONAL,O=Cc1cc2OCOc2cc1,263,536.15
INDALONE,CCCCOC(=O)C1=CC(=O)CC(C)(C)O1,263,536.15
"1,7-DIMETHYLNAPHTHALENE",Cc1cc2c(cc1)cccc2C,263,536.15
2-TRIDECANONE,CCCCCCCCCCCC(C)=O,263,536.15
6-CHLOROQUINOLINE,Clc1cc2ccc[n]c2cc1,263,536.15
CHLOROHYDROQUINONE,Oc1cc(Cl)c(O)cc1,263,536.15
"Benzonitrile, 2-amino-",Nc1ccccc1C#N,263,536.15
2-METHYLPENTANEDINITRILE,CC(CCC#N)C#N,263,536.15
"Benzoic acid, 4-bromo-, ethyl ester",CCOC(=O)c1ccc(Br)cc1,263,536.15
HEXAMETHYLBENZENE,Cc1c(C)c(C)c(C)c(C)c1C,263.4,536.55
"Benzaldehyde, 3-ethoxy-2-hydroxy-",CCOc1cccc(C=O)c1O,263.5,536.65
METHYL PHENYL SULFOXIDE,C[S@](=O)c1ccccc1,263.5,536.65
"BENZENE, 1-METHYL-2-PHENOXY-",Cc1ccccc1Oc1ccccc1,263.5,536.65
"Phosphoric acid, tris(2-methylpropyl) ester",CC(C)COP(=O)(OCC(C)C)OCC(C)C,264,537.15
"1,6-DIMETHYLNAPHTHALENE",Cc1cc2cccc(C)c2cc1,264,537.15
"Benzenamine, 4-bromo-N,N-dimethyl-",CN(C)c1ccc(Br)cc1,264,537.15
3-Ethoxynitrobenzene,CCOc1cc(ccc1)[N+]([O-])=O,264,537.15
1-CYCLOHEXYLOCTANE,CCCCCCCCC1CCCCC1,264,537.15
"Butanedinitrile, ethyl-",CCC(CC#N)C#N,264,537.15
"Quinoline, 2,7-dimethyl-",Cc1cc2[n]c(C)ccc2cc1,264.5,537.65
"10-Undecenoic acid, ethyl ester",CCOC(=O)CCCCCCCCC=C,264.5,537.65
OCTYLBENZENE,CCCCCCCCc1ccccc1,264.5,537.65
"BENZENE, 1,1'-METHYLENEBIS-",C(c1ccccc1)c1ccccc1,265,538.15
"1,7-Octanediol, 3,7-dimethyl-",CC(CCO)CCCC(C)(C)O,265,538.15
DODECYL ACETATE,CCCCCCCCCCCCOC(C)=O,265,538.15
"2,6-DI-T-BUTYL-4-METHYLPHENOL (BHT)",Cc1cc(c(O)c(c1)C(C)(C)C)C(C)(C)C,265,538.15
"3,4-DIAMINOTOLUENE",Cc1cc(N)c(N)cc1,265,538.15
"2,4,6-TRICHLORO-3-METHYLPHENOL",Cc1c(Cl)cc(Cl)c(O)c1Cl,265,538.15
"2,7-DIMETHYLNAPHTHALENE",Cc1cc2cc(C)ccc2cc1,265,538.15
"1,3,4-Trimethyl-6-nitrobenzene",Cc1cc(c(C)cc1C)[N+]([O-])=O,265,538.15
P-METHYLPHENYLACETIC ACID,Cc1ccc(CC(O)=O)cc1,265,538.15
"1-Hexanone, 1-phenyl-",CCCCCC(=O)c1ccccc1,265,538.15
"CYCLOHEXANONE, 2-(1-CYCLOHEXEN-1-YL)-",O=C1CCCCC1C1CCCCC=1,265,538.15
Phenyl-propynoic acid ethyl ester,CCOC(=O)C#Cc1ccccc1,265,538.15
"BENZENE, (1-CYCLOHEXYLETHYL)-",CC(C1CCCCC1)c1ccccc1,265,538.15
"CYCLOHEXANAMINE, N-CYCLOHEXYL-N-METHYL-",CN(C1CCCCC1)C1CCCCC1,265,538.15
"PROPANE, 1,1'-SULFONYLBIS[2-METHYL-",CC(C)CS(=O)(=O)CC(C)C,265,538.15
"Cyclohexanol, 3-(aminomethyl)-3,5,5-trimethyl-",CC1(C)CC(O)CC(C)(C1)CN,265,538.15
PHENYLACETIC ACID,OC(=O)Cc1ccccc1,265.5,538.65
6-Methylisoquinoline,Cc1cc2cc[n]cc2cc1,265.5,538.65
3-METHYLINDOLE,Cc1c[nH]c2ccccc21,266,539.15
2-METHOXY-4-(1-PROPENYL)PHENOL,CC=Cc1cc(OC)c(O)cc1,266,539.15
2-CHLOROQUINOLINE,Clc1ccc2ccccc2[n]1,266,539.15
7-METHYLINDOLE,Cc1cccc2cc[nH]c21,266,539.15
2-Phenoxypropionic acid,C[C@H](Oc1ccccc1)C(O)=O,266,539.15
"1,1'-BIPHENYL, 2-ETHYL-",CCc1ccccc1-c1ccccc1,266,539.15
"QUINOLINE, 3-ETHYL-",CCc1cc2ccccc2[n]c1,266,539.15
1-ALLYLNAPHTHALENE,C=CCc1cccc2ccccc21,266,539.15
"PHENOL, 3-(DIMETHYLAMINO)-",CN(C)c1cccc(O)c1,266.5,539.65
TRIETHYLENETETRAAMINE,NCCNCCNCCN,266.5,539.65
"1,2-DIMETHYLNAPHTHALENE",Cc1ccc2ccccc2c1C,266.5,539.65
4-Methoxy-1-methyl-2-nitro-benzene,Cc1ccc(cc1[N+]([O-])=O)OC,266.5,539.65
"1,4-BENZENEDIAMINE",Nc1ccc(N)cc1,267,540.15
P-AMINOACETANILIDE,CC(=O)Nc1ccc(N)cc1,267,540.15
8-QUINOLINOL,Oc1cccc2ccc[n]c21,267,540.15
"1H-IMIDAZOLE, 2-METHYL-",Cc1[nH]cc[n]1,267,540.15
"2,4-Dimethyl-1H-imidazole",Cc1[nH]c(C)c[n]1,267,540.15
"Benzeneethanol, 2-nitro-",[O-][N+](=O)c1ccccc1CCO,267,540.15