NAME,SMILES,BP_C,BP_K
4-Methylindole,Cc1cccc2[nH]ccc21,267,540.15
CGA 245704,CSC(=O)c1cccc2[n][n][s]c12,267,540.15
"4-METHYL-1,1'-BIPHENYL",Cc1ccc(cc1)-c1ccccc1,267.5,540.65
"PHENOL, 2-METHOXY-6-(1-PROPENYL)-",CC=Cc1cccc(OC)c1O,267.5,540.65
Oxalic acid bis-(3-methyl-butyl) ester,CC(C)CCOC(=O)C(=O)OCCC(C)C,267.5,540.65
2-Benzyl-piperidine,C(C1CCCCN1)c1ccccc1,267.5,540.65
"O-AMINOBENZOIC ACID, ETHYL ESTER",CCOC(=O)c1ccccc1N,268,541.15
"ETHANOL, 2-(ETHYLPHENYLAMINO)-",CCN(CCO)c1ccccc1,268,541.15
"2-Propanone, 1-(4-methoxyphenyl)-",CC(=O)Cc1ccc(cc1)OC,268,541.15
"1,4-DIMETHYLNAPHTHALENE",Cc1ccc(C)c2ccccc12,268,541.15
"Benzoic acid, 2,4-dimethyl-",Cc1ccc(C(O)=O)c(C)c1,268,541.15
"Octanedioic acid, dimethyl ester",COC(=O)CCCCCCC(=O)OC,268,541.15
"BENZENE, 1-CYCLOHEXYL-2-METHOXY-",COc1ccccc1C1CCCCC1,268,541.15
N-Phenyl-N-propylacetamide,CC(=O)N(CCC)c1ccccc1,268,541.15
"1,4-DICHLORO-2,5-DIMETHOXYBENZENE",COc1cc(Cl)c(cc1Cl)OC,268,541.15
Bis(4-bromophenyl) sulfide,Brc1ccc(cc1)Sc1ccc(Br)cc1,268,541.15
1-ISOPROPYLNAPHTHALENE,CC(C)c1cccc2ccccc21,268,541.15
2-ISOPROPYLNAPHTHALENE,CC(C)c1cc2ccccc2cc1,268.2,541.35
1-PENTADECENE,CCCCCCCCCCCCCC=C,268.2,541.35
DECANOIC ACID,CCCCCCCCCC(O)=O,268.7,541.85
"Naphthalene, 1-isocyanato-",O=C=Nc1cccc2ccccc21,269,542.15
"DIMETHYLUREA, SYM",CNC(=O)NC,269,542.15
INDAZOLE,c1[n][nH]c2ccccc21,269,542.15
"Phenol, 2,4-bis(1,1-dimethylethyl)-6-methyl-",Cc1cc(cc(c1O)C(C)(C)C)C(C)(C)C,269,542.15
"NAPHTHALENE, 1-METHOXY-",COc1cccc2ccccc21,269,542.15
"Hexane, 1,1'-oxybis 2-ethyl-",CCCCC(COCC(CCCC)CC)CC,269.4,542.55
"Octane-1,8-dithiol",SCCCCCCCCS,269.5,542.65
4-Chloro-2-methyl-quinoline,Cc1cc(Cl)c2ccccc2[n]1,269.5,542.65
1-Bromo-3-methyl-5-nitrobenzene,Cc1cc(cc(Br)c1)[N+]([O-])=O,269.5,542.65
3-Chloro-2-hydroxy-benzoic acid ethyl ester,CCOC(=O)c1cccc(Cl)c1O,269.5,542.65
"Benzaldehyde, 2,5-dimethoxy-",COc1ccc(cc1C=O)OC,270,543.15
"Benzenemethanol, 4-methoxy-, acetate",CC(=O)OCc1ccc(cc1)OC,270,543.15
Lupinine,OC[C@@H]1CCCN2CCCC[C@@H]21,270,543.15
DEHYDROACETIC ACID,CC(=O)C1C(=O)C=C(C)OC1=O,270,543.15
HEXADECAMETHYLHEPTASILOXANE,C[Si](C)(C)O[Si](C)(C)O[Si](C)(C)O[Si](C)(C)O[Si](C)(C)O[Si](C)(C)O[Si](C)(C)C,270,543.15
"1,8-DIMETHYLNAPHTHALENE",Cc1cccc2cccc(C)c12,270,543.15
PROPYL SULFONE,CCCS(=O)(=O)CCC,270,543.15
"1,1'-BIPHENYL, 2,3'-DIMETHYL-",Cc1cc(ccc1)-c1ccccc1C,270,543.15
2-NITROBENZYL ALCOHOL,[O-][N+](=O)c1ccccc1CO,270,543.15
"2,4,5-TRICHLOROANILINE",Nc1cc(Cl)c(Cl)cc1Cl,270,543.15
"2,4'-Dichloroacetophenone",O=C(CCl)c1ccc(Cl)cc1,270,543.15
"2,6-DICHLOROBENZONITRILE",N#Cc1c(Cl)cccc1Cl,270,543.15
"Benzoic acid, 2-hydroxy-, pentyl ester",CCCCCOC(=O)c1ccccc1O,270,543.15
"Ethanone, 2-(acetyloxy)-1-phenyl-",CC(=O)OCC(=O)c1ccccc1,270,543.15
"1,3-Benzenediamine, N,N-dimethyl-",CN(C)c1cccc(N)c1,270,543.15
Cyclohexyl-(2-ethyl-hexyl)-amine,CCCCC(CNC1CCCCC1)CC,270,543.15
EUGENYL FORMATE,COc1cc(CC=C)ccc1OC=O,270,543.15
GEOSMIN,CC12CCCC(C)C1(O)CCCC2,270,543.15
"Piperidine, 4-(phenylmethyl)-",C(C1CCNCC1)c1ccccc1,270,543.15
"Benzene, 1,2-dimethoxy-4-(1-propenyl)-",CC=Cc1cc(OC)c(cc1)OC,270.5,543.65
N-PENTADECANE,CCCCCCCCCCCCCCC,270.6,543.75
"Benzeneacetic acid, .alpha.-ethyl-",CC[C@@H](C(O)=O)c1ccccc1,271,544.15
"CINNAMIC ACID, ETHYL ESTER",CCOC(=O)C=Cc1ccccc1,271,544.15
FORMANILIDE,O=CNc1ccccc1,271,544.15
2-PHENYLPYRIDINE,c1ccccc1-c1cccc[n]1,271,544.15
"BENZOIC ACID, 2-HYDROXY-, BUTYL ESTER",CCCCOC(=O)c1ccccc1O,271,544.15
4-ISOPROPYLCATECHOL,CC(C)c1cc(O)c(O)cc1,271,544.15
"Octane, 1,8-dibromo-",BrCCCCCCCCBr,271,544.15
2-METHYLINDOLE,Cc1cc2ccccc2[nH]1,272,545.15
"1,4-BENZENEDIOL, 2-METHYL-",Cc1cc(O)ccc1O,272,545.15
"3,4-DICHLOROANILINE",Nc1cc(Cl)c(Cl)cc1,272,545.15
"2H-1-Benzopyran-2-one, 3,4-dihydro-",O=C1CCc2ccccc2O1,272,545.15
3-PHENYLPYRIDINE,c1[n]cccc1-c1ccccc1,272,545.15
"BENZENE, (3-CYCLOPENTYLPROPYL)-",C(CCc1ccccc1)C1CCCC1,272,545.15
"1H-PYRROLE, 2-PHENYL-",c1ccccc1-c1ccc[nH]1,272,545.15
"Phenol, 2,6-bis(1,1-dimethylethyl)-4-ethyl-",CCc1cc(c(O)c(c1)C(C)(C)C)C(C)(C)C,272,545.15
"Benzoic acid, hexyl ester",CCCCCCOC(=O)c1ccccc1,272,545.15
"CYCLOHEXANE, 1,1'-(1,2-ETHANEDIYL)BIS-",C(CC1CCCCC1)C1CCCCC1,272.5,545.65
"1,1-DIPHENYLETHANE",CC(c1ccccc1)c1ccccc1,272.6,545.75
3-METHYLBIPHENYL,Cc1cc(ccc1)-c1ccccc1,272.7,545.85
"1,2-Ethanediol, 1-phenyl-",OCC(O)c1ccccc1,273,546.15
4-AMINOPYRIDINE,Nc1cc[n]cc1,273,546.15
"2-BROMO-4,6-DICHLOROANILINE",Nc1c(Br)cc(Cl)cc1Cl,273,546.15
"1H-PYRAZOLE, 4,5-DIHYDRO-1-PHENYL-",C1CN(N=C1)c1ccccc1,273,546.15
"1H-Pyrazole, 3,5-dimethyl-1-phenyl-",Cc1cc(C)[n][n]1-c1ccccc1,273,546.15
"Benzene, 1,2,4-trichloro-5-(chloromethyl)-",ClCc1cc(Cl)c(Cl)cc1Cl,273,546.15
"Benzenemethanol, 2-amino-",Nc1ccccc1CO,273,546.15
"Oxiranecarboxylic acid, 3-methyl-3-phenyl-, ethy",CC1(OC1C(=O)OCC)c1ccccc1,273.5,546.65
"2,5-DIAMINOTOLUENE",Cc1cc(N)ccc1N,273.5,546.65
"2,2-BIPYRIDINE",c1ccc[n]c1-c1cccc[n]1,273.5,546.65
"2,6-Dimethylquinoline",Cc1cc2c(cc1)[n]ccc2C,273.5,546.65
3-Bromo-d-camphor,CC1(C)C2CCC1(C)C(=O)C2Br,274,547.15
"NAPHTHALENE, 2-METHOXY-",COc1cc2ccccc2cc1,274,547.15
"Benzene, 1,3-dimethyl-5-nitro-",Cc1cc(cc(C)c1)[N+]([O-])=O,274,547.15
P-NITROANISOLE,COc1ccc(cc1)[N+]([O-])=O,274,547.15
"3,5-DIBROMOPHENOL",Oc1cc(Br)cc(Br)c1,274,547.15
"1,3,5-TRIAZINE-2,4,6(1H,3H,5H)-TRIONE, 1,3,5-TRI",CN1C(=O)N(C)C(=O)N(C)C1=O,274,547.15
2-CHLOROBIPHENYL,Clc1ccccc1-c1ccccc1,274,547.15
"Butanedioic acid, dibutyl ester",CCCCOC(=O)CCC(=O)OCCCC,274.5,547.65
"2,6-DIMETHYLBENZOIC ACID",Cc1cccc(C)c1C(O)=O,274.5,547.65
"Benzoic acid, 3,4,5-trimethoxy-, methyl ester",COC(=O)c1cc(OC)c(OC)c(c1)OC,274.5,547.65
"Hexanoic acid, 5-oxo-",CC(=O)CCCC(O)=O,274.5,547.65
"3,5-Dimethyl-biphenyl",Cc1cc(cc(C)c1)-c1ccccc1,274.5,547.65
"Benzenamine, N,N-dibutyl-",CCCCN(CCCC)c1ccccc1,274.8,547.95
"Ethanol, 2,2'-(butylimino)bis-",CCCCN(CCO)CCO,275,548.15
UNDECYLENIC ACID,C=CCCCCCCCCC(O)=O,275,548.15
ALANTOLACTONE,C[C@H]1CCC[C@]2(C)C[C@H]3OC(=O)C(=C)[C@H]3C=C21,275,548.15
"BENZOIC ACID, 2-NITRO-, METHYL ESTER",COC(=O)c1ccccc1[N+]([O-])=O,275,548.15
"3,4,5-TRICHLOROPHENOL",Oc1cc(Cl)c(Cl)c(Cl)c1,275,548.15
Ethyl 2-nitrobenzoate,CCOC(=O)c1ccccc1[N+]([O-])=O,275,548.15
"1,2,4-TRIBROMOBENZENE",Brc1cc(Br)c(Br)cc1,275,548.15
OCTYL CAPROATE,CCCCCC(=O)OCCCCCCCC,275,548.15
3-BROMOQUINOLINE,Brc1cc2ccccc2[n]c1,275,548.15
ETHYL 4-ETHOXYBENZOATE,CCOc1ccc(cc1)C(=O)OCC,275,548.15
TRICYCLAZOLE,Cc1cccc2[s]c3[n][n]c[n]3c21,275,548.15
"2,6-Dichloro-4-ethoxyaniline",CCOc1cc(Cl)c(N)c(Cl)c1,275,548.15
1-Tridecanamine,CCCCCCCCCCCCCN,275.8,548.95
"1,3-Benzenedicarbonyl dichloride",O=C(Cl)c1cc(ccc1)C(=O)Cl,276,549.15
"1,6,10-Dodecatrien-3-ol, 3,7,11-trimethyl-",CC(C)=CCC/C(/C)=C\CC[C@](C)(O)C=C,276,549.15
1-BROMO-N-DODECANE,CCCCCCCCCCCCBr,276,549.15
ANABASINE,C1CCC[C@H](N1)c1c[n]ccc1,276,549.15
"2-BENZOFURANCARBOXYLIC ACID, ETHYL ESTER",CCOC(=O)c1cc2ccccc2o1,276,549.15
1-Phenyl-1H-imidazole,c1[n]cc[n]1-c1ccccc1,276,549.15
P-METHOXYBENZOIC ACID,COc1ccc(cc1)C(O)=O,276.5,549.65
"Benzoyl chloride, 3-nitro-",[O-][N+](=O)c1cccc(c1)C(=O)Cl,276.5,549.65
MYRISTICIN,COc1cc(CC=C)cc2OCOc21,276.5,549.65
"2,3,4,6-Tetrachlorotoluene",Cc1c(Cl)cc(Cl)c(Cl)c1Cl,276.5,549.65
2-NITROANISOLE,COc1ccccc1[N+]([O-])=O,277,550.15
2-BENZYLPYRIDINE,C(c1cccc[n]1)c1ccccc1,277,550.15
"Benzoic acid, 3-iodo-, methyl ester",COC(=O)c1cccc(I)c1,277,550.15
"HEPTANOIC ACID, HEPTYL ESTER",CCCCCCC(=O)OCCCCCCC,277,550.15
LAURONITRILE,CCCCCCCCCCCC#N,277,550.15
"Octanoic acid, hexyl ester",CCCCCCCC(=O)OCCCCCC,277.4,550.55
"BENZENAMINE, 2,3,4,5,6-PENTAMETHYL-",Cc1c(C)c(C)c(N)c(C)c1C,277.5,550.65
"Benzoic acid, 2-hydroxy-, 3-methylbutyl ester",CC(C)CCOC(=O)c1ccccc1O,278,551.15
TRIETHYLENE GLYCOL BUTYL ETHER,CCCCOCCOCCOCCO,278,551.15
"2,4,6-TRI(TERT-BUTYL)PHENOL",CC(C)(C)c1cc(c(O)c(c1)C(C)(C)C)C(C)(C)C,278,551.15
"2,5-DIMETHYL-1,3-BENZENEDIOL",Cc1cc(O)c(C)c(O)c1,278.5,551.65
DIPHENYL SULFONE,O=S(=O)(c1ccccc1)c1ccccc1,279,552.15
"CYCLOPENTANE, DECYL-",CCCCCCCCCCC1CCCC1,279,552.15
"Benzenamine, N-cyclohexyl-",C1CCCCC1Nc1ccccc1,279,552.15
"1-NAPHTHALENAMINE, 5,6,7,8-TETRAHYDRO-",Nc1cccc2CCCCc21,279,552.15
"NAPHTHALENE, 1-(1,1-DIMETHYLETHYL)-",CC(C)(C)c1cccc2ccccc21,279,552.15
2-ANILINOETHANOL,OCCNc1ccccc1,279.5,552.65
BETA-PHENYLPROPIONIC ACID,OC(=O)CCc1ccccc1,279.8,552.95
"1-NAPHTHALENAMINE, N,N-DIMETHYL-",CN(C)c1cccc2ccccc21,280,553.15
"TARTARIC ACID, DIETHYL ESTER",CCOC(=O)[C@H](O)[C@@H](O)C(=O)OCC,280,553.15
2-HYDROXYPYRIDINE,O=C1C=CC=CN1,280,553.15
"OXANILIC ACID,ETHYL ESTER",CCOC(=O)C(=O)Nc1ccccc1,280,553.15
"2,4,6-Trimethylquinoline",Cc1cc2c(cc1)[n]c(C)cc2C,280,553.15
But-2-enedioic acid diisopropyl ester,CC(C)OC(=O)C=CC(=O)OC(C)C,280,553.15
7-Bromo-heptanoic acid,OC(=O)CCCCCCBr,280,553.15
"Benzene, 1-methyl-2-(phenylmethyl)-",Cc1ccccc1Cc1ccccc1,280.5,553.65
N-NONYLBENZENE,CCCCCCCCCc1ccccc1,280.5,553.65
"BENZENE, 1-ISOTHIOCYANATO-4-METHOXY",COc1ccc(cc1)N=C=S,280.5,553.65
1-ETHOXY-NAPHTHALIN,CCOc1cccc2ccccc21,280.5,553.65
EUGENYL ACETATE,CC(=O)Oc1ccc(CC=C)cc1OC,281,554.15
"BENZALDEHYDE, 3,4-DIMETHOXY-",COc1ccc(C=O)cc1OC,281,554.15
1-Methyl-2-(3-pyridyl)pyrrole,C[n]1cccc1-c1c[n]ccc1,281,554.15
(4-PYRIDYL)-2-PYRIDINE,c1c[n]ccc1-c1cccc[n]1,281,554.15
"2,4-Dichloroquinoline",Clc1cc(Cl)[n]c2ccccc12,281,554.15
4-PHENYLPYRIDINE,c1cc(cc[n]1)-c1ccccc1,281,554.15
METHYL M-HYDROXYBENZOATE,COC(=O)c1cccc(O)c1,281,554.15
PHTHALOYL CHLORIDE,O=C(Cl)c1ccccc1C(=O)Cl,281.1,554.25
2-BROMONAPHTHALENE,Brc1cc2ccccc2cc1,281.5,554.65
"2,2'-THIOBISETHANOL",OCCSCCO,282,555.15
"Phenol, 2,4-bis(1,1-dimethylethyl)-5-methyl-",Cc1cc(O)c(cc1C(C)(C)C)C(C)(C)C,282,555.15
DIMETHYL ISOPHTHALATE,COC(=O)c1cc(ccc1)C(=O)OC,282,555.15
N-NONYLCYCLOHEXANE,CCCCCCCCCC1CCCCC1,282,555.15
"3,4-DIMETHYLBIPHENYL",Cc1ccc(cc1C)-c1ccccc1,282,555.15
"Aniline, (p-hexyl)-",CCCCCCc1ccc(N)cc1,282,555.15
S-Metolachlor,Cc1cccc(CC)c1N([C@@H](C)COC)C(=O)CCl,282,555.15
"BENZENAMINE, N,N-DIMETHYL-3-NITRO-",CN(C)c1cc(ccc1)[N+]([O-])=O,282.5,555.65
"Octanoic acid, anhydride",CCCCCCCC(=O)OC(=O)CCCCCCC,282.5,555.65
"BENZENE, 1,1'-(1-METHYLETHYLIDENE)BIS-",CC(C)(c1ccccc1)c1ccccc1,282.5,555.65
4-Bromoisoquinoline,Brc1c[n]cc2ccccc21,282.5,555.65
DIETHYL SUBERATE,CCOC(=O)CCCCCCC(=O)OCC,282.6,555.75
"1,3-Propanediol, 2-(hydroxymethyl)-2-methyl-",CC(CO)(CO)CO,283,556.15
p-Xenylcarbimide,O=C=Nc1ccc(cc1)-c1ccccc1,283,556.15
P-NITROPHENETOLE,CCOc1ccc(cc1)[N+]([O-])=O,283,556.15
M-HYDROXYPHENYL ACETATE,CC(=O)Oc1cccc(O)c1,283,556.15
"Octane, 1,1'-oxybis-",CCCCCCCCOCCCCCCCC,283,556.15
OCTACHLOROCYCLOPENTENE,ClC1(Cl)C(Cl)(Cl)C(Cl)=C(Cl)C1(Cl)Cl,283,556.15
8-METHOXYQUINOLINE,COc1cccc2ccc[n]c21,283,556.15
"1H-INDOLE, 1,2,3-TRIMETHYL-",Cc1c2ccccc2[n](C)c1C,283,556.15
"BENZOIC ACID, 3,4-DIMETHOXY-, METHYL ESTER",COc1cc(ccc1OC)C(=O)OC,283,556.15
"2-OCTANAMINE, N-(1-METHYLHEPTYL)-",CC(CCCCCC)NC(C)CCCCCC,283,556.15
"Phenol, 2,6-bis(1,1-dimethylpropyl)-4-methyl-",Cc1cc(c(O)c(c1)C(C)(C)CC)C(C)(C)CC,283,556.15
"Benzene, 1,2-dichloro-4-(trichloromethyl)-",Clc1cc(ccc1Cl)C(Cl)(Cl)Cl,283.1,556.25
"1-Heptanone, 1-phenyl-",CCCCCCC(=O)c1ccccc1,283.3,556.45
"3-ETHYL-1,1'-BIPHENYL",CCc1cc(ccc1)-c1ccccc1,283.5,556.65
DIMETHYL PHTHALATE,COC(=O)c1ccccc1C(=O)OC,283.7,556.85
BIBENZYL,C(Cc1ccccc1)c1ccccc1,284,557.15
"Quinoline, 1,2,3,4-tetrahydro-6-methoxy-",COc1cc2CCCNc2cc1,284,557.15
"2,3-DINITROTOLUENE",Cc1cccc(c1[N+]([O-])=O)[N+]([O-])=O,284,557.15
"1,2-DINO2 4-METHYL BENZENE",Cc1cc(c(cc1)[N+]([O-])=O)[N+]([O-])=O,284,557.15
"2,5-DINITROTOLUENE",Cc1cc(ccc1[N+]([O-])=O)[N+]([O-])=O,284,557.15
3-PYRIDINEPROPANOL,OCCCc1c[n]ccc1,284,557.15
"3,3'-Dimethyl diphenylether",Cc1cc(ccc1)Oc1cc(C)ccc1,284,557.15
3-CHLOROBIPHENYL,Clc1cc(ccc1)-c1ccccc1,284.5,557.65
4-CHLOROPHENYL PHENYL ETHER,Clc1ccc(cc1)Oc1ccccc1,284.5,557.65
"CYCLOHEXANE, 1,1'-(1-METHYL-1,2-ETHANEDIYL)BIS-",CC(CC1CCCCC1)C1CCCCC1,284.5,557.65
1-HEXADECENE,CCCCCCCCCCCCCCC=C,284.9,558.05
"1H-INDOLE, 2,3-DIMETHYL-",Cc1c2ccccc2[nH]c1C,285,558.15
"1,2-Benzenediol, 4-(1,1-dimethylethyl)-",CC(C)(C)c1cc(O)c(O)cc1,285,558.15
"1,4-Cyclohexanedimethanol",OCC1CCC(CC1)CO,285,558.15
"1,3-BENZENEDIAMINE",Nc1cc(N)ccc1,285,558.15
VANILLIN,COc1cc(C=O)ccc1O,285,558.15
PHENOXYACETIC ACID,OC(=O)COc1ccccc1,285,558.15
"TETRAHYDROTHIOPHENE-1,1-DIOXIDE",O=S1(=O)CCCC1,285,558.15
2-NAPHTHOL,Oc1cc2ccccc2cc1,285,558.15
"2,6-Pyridinediamine",Nc1cccc(N)[n]1,285,558.15
1-Naphthalenethiol,Sc1cccc2ccccc21,285,558.15
"1,4-DIIODOBENZENE",Ic1ccc(I)cc1,285,558.15
"1,3-DIIODOBENZENE",Ic1cc(I)ccc1,285,558.15
"HEXANEDIOIC ACID, MONOETHYL ESTER",CCOC(=O)CCCCC(O)=O,285,558.15
"Benzene, 1,1'-oxybis 4-methyl-",Cc1ccc(cc1)Oc1ccc(C)cc1,285,558.15
"1,2,3-Propanetricarboxylic acid, 2-hydroxy-, tri",COC(=O)C(O)(CC(=O)OC)CC(=O)OC,285,558.15
"1-Octanone, 1-phenyl-",CCCCCCCC(=O)c1ccccc1,285,558.15
"Morpholine, 4,4'-(1,2-ethanediyl)bis-",C(CN1CCOCC1)N1CCOCC1,285,558.15
"Benzene, (octyloxy)-",CCCCCCCCOc1ccccc1,285,558.15
"2,3,5-TRIMETHYLNAPHTHALENE",Cc1cccc2cc(C)c(C)cc12,285,558.15
"BENZOIC ACID, CYCLOHEXYL ESTER",O=C(OC1CCCCC1)c1ccccc1,285,558.15
"BENZENE, 2,4-DIBROMO-1,3,5-TRIMETHYL-",Cc1c(Br)c(C)cc(C)c1Br,285,558.15
"Ethanol, 2- (2-methylphenyl)amino -",Cc1ccccc1NCCO,285.5,558.65
"1H-Isoindole-1,3(2H)-dione, N-ethyl-",CCN1C(=O)c2ccccc2C1=O,285.5,558.65
"1,3-Benzodioxole-5-carboxylic acid, ethyl ester",CCOC(=O)c1ccc2OCOc2c1,285.5,558.65
2-PHENYLPHENOL,Oc1ccccc1-c1ccccc1,286,559.15
"2(3H)-Furanone, 5-heptyldihydro-",CCCCCCCC1CCC(=O)O1,286,559.15
ETHYLENEBIS(OXYETHYLENE)DIACETATE,CC(=O)OCCOCCOCCOC(C)=O,286,559.15
"2,4,6-TRIBROMOPHENOL",Oc1c(Br)cc(Br)cc1Br,286,559.15
PENTANEDINITRILE,N#CCCCC#N,286,559.15
"BENZENE, 1-METHYL-4-(PHENYLMETHYL)-",Cc1ccc(Cc2ccccc2)cc1,286,559.15
"Benzenamine, 3-ethoxy-N,N-diethyl-",CCOc1cc(ccc1)N(CC)CC,286,559.15
"BENZOIC ACID, 4-HYDROXY-3-METHOXY-, METHYL ESTER",COc1cc(ccc1O)C(=O)OC,286,559.15
"CYCLOHEXANE, 1,1'-(1-METHYLETHYLIDENE)BIS-",CC(C)(C1CCCCC1)C1CCCCC1,286,559.15
2-METHYL-4-CHLOROPHENOXYACETIC ACID,Cc1cc(Cl)ccc1OCC(O)=O,286.74,559.89
N-HEXADECANE,CCCCCCCCCCCCCCCC,286.8,559.95
2-CHLOROBENZOIC ACID,OC(=O)c1ccccc1Cl,287,560.15
HYDROQUINONE,Oc1ccc(O)cc1,287,560.15
DIBENZOFURAN,c1cccc2oc3ccccc3c21,287,560.15
3-BENZYLPYRIDINE,C(c1c[n]ccc1)c1ccccc1,287,560.15
2-Chloro-8-methyl-quinoline,Cc1cccc2ccc(Cl)[n]c21,287,560.15
"2,4,5-TRICHLORONITROBENZENE",[O-][N+](=O)c1cc(Cl)c(Cl)cc1Cl,288,561.15
2-Naphthalenethiol,Sc1cc2ccccc2cc1,288,561.15
"Benzenemethanamine, N-ethyl-N-phenyl-",CCN(Cc1ccccc1)c1ccccc1,288,561.15
"Formamide, N-(2-methylphenyl)-",Cc1ccccc1NC=O,288,561.15
O-PHENOXYANISOLE,COc1ccccc1Oc1ccccc1,288,561.15
"1,4-DICHLORONAPHTHALENE",Clc1ccc(Cl)c2ccccc12,288,561.15
4-BENZYLPYRIDINE,C(c1ccccc1)c1cc[n]cc1,288,561.15
8-CHLOROQUINOLINE,Clc1cccc2ccc[n]c21,288.5,561.65
"2(1H)-PYRIDINONE, 3-METHYL-",CC1=CC=CNC1=O,289,562.15
"Pyridine, 2-(2-phenylethyl)-",C(Cc1cccc[n]1)c1ccccc1,289,562.15
M-AMINOBENZONITRILE,Nc1cc(ccc1)C#N,289,562.15
4-PYRIDINEPROPANOL,OCCCc1cc[n]cc1,289,562.15
"Quinoxaline, 1,2,3,4-tetrahydro-",C1CNc2ccccc2N1,289,562.15
"1,1'-BIPHENYL, 3,4'-DIMETHYL-",Cc1ccc(cc1)-c1cc(C)ccc1,289,562.15
"NAPHTHALENE, 1-BUTYL-",CCCCc1cccc2ccccc21,289.3,562.45
M-AMINOACETOPHENONE,CC(=O)c1cccc(N)c1,289.5,562.65
5-METHYLRESORCINOL,Cc1cc(O)cc(O)c1,289.5,562.65
GLYCEROL,OC(CO)CO,290,563.15
PHTHALIDE,O=C1OCc2ccccc21,290,563.15
"Cinnamic acid, alpha-fluoro-",OC(=O)/C(/F)=C/c1ccccc1,290,563.15
"Benzene, 1-iodo-2-nitro-",[O-][N+](=O)c1ccccc1I,290,563.15
"2,4-DIMETHOXYBENZALDEHYD",COc1cc(ccc1C=O)OC,290,563.15
4-PHENYLBUTYRIC ACID,OC(=O)CCCc1ccccc1,290,563.15
"2-NAPHTHALENECARBOXYLIC ACID, METHYL ESTER",COC(=O)c1cc2ccccc2cc1,290,563.15
7-BROMOQUINOLINE,Brc1cc2[n]cccc2cc1,290,563.15
Heptanoic acid octyl ester,CCCCCCC(=O)OCCCCCCCC,290,563.15
"Benzene, 1,1'-(1-ethyl-1,2-ethanediyl)bis-",CCC(Cc1ccccc1)c1ccccc1,290,563.15
"2,4,6-Tribromotoluene",Cc1c(Br)cc(Br)cc1Br,290,563.15
"1,3-DINITROBENZENE",[O-][N+](=O)c1cc(ccc1)[N+]([O-])=O,291,564.15
"Butane, 1,1'-sulfonylbis-",CCCCS(=O)(=O)CCCC,291,564.15
8-PENTADECANONE,CCCCCCCC(=O)CCCCCCC,291,564.15
"3,4-DIMETHYLQUINOLINE",Cc1c[n]c2ccccc2c1C,291,564.15
1-TETRADECANAMINE,CCCCCCCCCCCCCCN,291.2,564.35
"Naphthalene, 1-(chloromethyl)-",ClCc1cccc2ccccc21,291.5,564.65
"3,3'-BIPYRIDINE",c1[n]cccc1-c1c[n]ccc1,291.5,564.65
"CYCLOHEXANE, 1,1'-(1,3-PROPANEDIYL)BIS-",C(CCC1CCCCC1)C1CCCCC1,291.5,564.65
1-Naphthalenecarboxaldehyde,O=Cc1cccc2ccccc21,292,565.15
"Benzenesulfonic acid, 4-methyl-, methyl ester",Cc1ccc(cc1)S(=O)(=O)OC,292,565.15
"2,4-TOLUENEDIAMINE",Cc1ccc(N)cc1N,292,565.15
4-NITROSO-N-PHENYLBENZENAMINE,O=Nc1ccc(cc1)Nc1ccccc1,292,565.15
LEDOL,CC1(C)[C@@H]2[C@H]1CC[C@@](C)(O)[C@H]1CC[C@@H](C)[C@H]12,292,565.15
"BENZOIC ACID, 4-HYDROXY-3-METHOXY-, ETHYL ESTER",COc1cc(ccc1O)C(=O)OCC,292,565.15
"2,3,4-TRICHLOROANILINE",Nc1ccc(Cl)c(Cl)c1Cl,292,565.15
"NAPHTHALENE, 2-BUTYL-",CCCCc1cc2ccccc2cc1,292,565.15
1-CHLOROTETRADECANE,CCCCCCCCCCCCCCCl,292,565.15
"1H-INDENE, 5-HEXYL-2,3-DIHYDRO-",CCCCCCc1cc2CCCc2cc1,292.1,565.25
4-CHLOROBIPHENYL,Clc1ccc(cc1)-c1ccccc1,292.9,566.05
Tridecanenitrile,CCCCCCCCCCCCC#N,293,566.15
"CYCLOHEXANE, 1,1'-BUTYLIDENEBIS-",CCCC(C1CCCCC1)C1CCCCC1,293,566.15
DIPHENYL METHYLAMINE,CN(c1ccccc1)c1ccccc1,293.5,566.65
TRIETHYL CITRATE,CCOC(=O)C(O)(CC(=O)OCC)CC(=O)OCC,294,567.15
4-AMINOACETOPHENONE,CC(=O)c1ccc(N)cc1,294,567.15
"BENZALDEHYDE, 3-ETHOXY-4-HYDROXY-",CCOc1cc(C=O)ccc1O,294,567.15
Cadalene,Cc1cc2c(cc1)c(C)ccc2C(C)C,294,567.15
"1,3-Benzodioxole, 4,7-dimethoxy-5-(2-propenyl)-",COc1c(CC=C)cc(OC)c2OCOc21,294,567.15
"Benzoic acid, 3-amino-, ethyl ester",CCOC(=O)c1cccc(N)c1,294,567.15
"1,2,3,4,5,6,7,8-Octahydro-anthracene",C1CCCc2cc3CCCCc3cc21,294,567.15
P-CYCLOHEXYLPHENOL,Oc1ccc(cc1)C1CCCCC1,294,567.15
2-Pentadecanone,CCCCCCCCCCCCCC(C)=O,294,567.15
1H-Imidazole-4-carboxylic acid,OC(=O)c1c[n]c[nH]1,294.5,567.65
DIETHYL PHTHALATE,CCOC(=O)c1ccccc1C(=O)OCC,295,568.15
PHTHALIC ANHYDRIDE,O=C1OC(=O)c2ccccc12,295,568.15
9H-FLUORENE,C1c2ccccc2-c2ccccc21,295,568.15
ADIPONITRILE,N#CCCCCC#N,295,568.15
ETHYLMYRISTATE,CCCCCCCCCCCCCC(=O)OCC,295,568.15
"1,2-Benzenediamine, 4-ethoxy-",CCOc1cc(N)c(N)cc1,295,568.15
"2-Pyrrolidinone, 1-(2-hydroxyethyl)-",OCCN1CCCC1=O,295,568.15
"CYCLOHEXANE, 1,1'-(2-METHYL-1,3-PROPANEDIYL)BIS-",CC(CC1CCCCC1)CC1CCCCC1,295.2,568.35
EMPENTHRIN,CC(C)=CC1C(C(=O)OC(C#C)/C(/C)=C/CC)C1(C)C,295.5,568.65
"1-FLUORO-2,4-DINITROBENZENE",[O-][N+](=O)c1cc(ccc1F)[N+]([O-])=O,296,569.15
DI-ISOBUTYLPHTHALATE,CC(C)COC(=O)c1ccccc1C(=O)OCC(C)C,296,569.15
"ACETAMIDE, N-(2-METHYLPHENYL)-",Cc1ccccc1NC(C)=O,296,569.15
DIPHENYLSULFIDE,c1ccccc1Sc1ccccc1,296,569.15
1-BROMO-N-TRIDECANE,CCCCCCCCCCCCCBr,296,569.15
"Pentadecane, 2,6,10,14-tetramethyl-",CC(C)CCCC(C)CCCC(C)CCCC(C)C,296,569.15
"1H-Benzimidazole, 1-ethyl-2-methyl-",Cc1[n]c2ccccc2[n]1CC,296,569.15
"CYCLOPENTANE, UNDECYL-",CCCCCCCCCCCC1CCCC1,296,569.15
"2,3,4-TRIMETHOXYACETOPHENONE",CC(=O)c1ccc(OC)c(OC)c1OC,296,569.15
"1,2-DICHLORONAPHTHALENE",Clc1ccc2ccccc2c1Cl,296.5,569.65
P-DINITROBENZENE,[O-][N+](=O)c1ccc(cc1)[N+]([O-])=O,297,570.15
4-ETHYL-DIPHENYLMETHANE,CCc1ccc(Cc2ccccc2)cc1,297,570.15
O-BROMOBIPHENYL,Brc1ccccc1-c1ccccc1,297,570.15
"1H-INDOLE, 2,3,5-TRIMETHYL-",Cc1cc2c(cc1)[nH]c(C)c2C,297,570.15
"P-HYDROXYBENZOIC ACID,ETHYL ESTER",CCOC(=O)c1ccc(O)cc1,297.5,570.65
"1,1-Di-p-tolylethane",CC(c1ccc(C)cc1)c1ccc(C)cc1,297.5,570.65
"1-Octanamine, N-octyl-",CCCCCCCCNCCCCCCCC,297.5,570.65
NIKETHAMIDE,CCN(CC)C(=O)c1ccc[n]c1,298,571.15
BENZHYDROL,OC(c1ccccc1)c1ccccc1,298,571.15
"Benzenemethanol, 3,4-dimethoxy-",COc1ccc(CO)cc1OC,298,571.15
MECOPROP,Cc1cc(Cl)ccc1OC(C)C(O)=O,298,571.15
DIBENZYL ETHER,C(OCc1ccccc1)c1ccccc1,298,571.15
"Benzene, hexaethyl-",CCc1c(CC)c(CC)c(CC)c(CC)c1CC,298,571.15
"2,4,6-TRIBROMOANISOLE",COc1c(Br)cc(Br)cc1Br,298,571.15
"Heptane, 1,1'-thiobis-",CCCCCCCSCCCCCCC,298,571.15
VX,CCOP(C)(=O)SCCN(C(C)C)C(C)C,298,571.15
DODECANOIC ACID,CCCCCCCCCCCC(O)=O,298.9,572.05
1-Naphthalenecarbonitrile,N#Cc1cccc2ccccc21,299,572.15
2-AMINOBIPHENYL,Nc1ccccc1-c1ccccc1,299,572.15
(4-Benzyl)chlorobenzene,Clc1ccc(Cc2ccccc2)cc1,299,572.15
"Octadecane, 1-isocyanato-",CCCCCCCCCCCCCCCCCCN=C=O,300,573.15
"2,2-BIS(ETHYLSULFONYL)PROPANE",CC(C)(S(=O)(=O)CC)S(=O)(=O)CC,300,573.15
"2,4-DINITROTOLUENE",Cc1ccc(cc1[N+]([O-])=O)[N+]([O-])=O,300,573.15
"METHANONE, PHENYL-2-THIENYL-",O=C(c1ccc[s]1)c1ccccc1,300,573.15