NAME,SMILES,BP_C,BP_K
Benzenesulfonyl fluoride,O=S(=O)(F)c1ccccc1,203.5,476.65
"2-Bromo-1,3-dimethylbenzene",Cc1cccc(C)c1Br,203.5,476.65
METHOXYACETIC ACID,COCC(O)=O,203.5,476.65
1-CHLORONONANE,CCCCCCCCCCl,203.5,476.65
"Pentanoic acid, pentyl ester",CCCCCOC(=O)CCCC,203.7,476.85
PENTYLCYCLOHEXANE,CCCCCC1CCCCC1,203.7,476.85
"NICOTINIC ACID, METHYL ESTER",COC(=O)c1ccc[n]c1,204,477.15
"2H-1,2,3-TRIAZOLE",c1c[n][nH][n]1,204,477.15
"BENZENE, 1-BROMO-3,5-DIMETHYL-",Cc1cc(Br)cc(C)c1,204,477.15
"1,2-DIISOPROPYLBENZENE",CC(C)c1ccccc1C(C)C,204,477.15
"Benzenamine, N-ethyl-N-methyl-",CCN(C)c1ccccc1,204,477.15
2-BROMOCHLOROBENZENE,Clc1ccccc1Br,204,477.15
3-Methyl-1H-pyrazole,Cc1cc[nH][n]1,204,477.15
1-BROMO-4-ETHYLBENZENE,CCc1ccc(Br)cc1,204,477.15
"Hexane, 1,6-dichloro-",ClCCCCCCCl,204,477.15
Trichloro-acetic acid butyl ester,CCCCOC(=O)C(Cl)(Cl)Cl,204,477.15
1-IODOHEPTANE,CCCCCCCI,204,477.15
"1,2-Dimethoxy-3-methyl-benzene",Cc1cccc(OC)c1OC,204,477.15
2-UNDECYNE,CC#CCCCCCCCC,204.2,477.35
P-TOLUALDEHYDE,Cc1ccc(C=O)cc1,204.5,477.65
N-METHYLACETAMIDE,CNC(C)=O,205,478.15
2-METHOXYPHENOL,COc1ccccc1O,205,478.15
ALPHA-METHYLBENZYL ALCOHOL,CC(O)c1ccccc1,205,478.15
Propylhexedrine,CC(CC1CCCCC1)NC,205,478.15
PHENTERMINE,CC(C)(N)Cc1ccccc1,205,478.15
HEXAMETHYLENE DIAMINE,NCCCCCCN,205,478.15
"2,5-DIMETHYL-3-HEXYNE-2,5-DIOL",CC(C)(O)C#CC(C)(C)O,205,478.15
4-FLUORONITROBENZENE,[O-][N+](=O)c1ccc(F)cc1,205,478.15
"A,A,A-TRIFLUOR-O-TOLUNITRIL",N#Cc1ccccc1C(F)(F)F,205,478.15
"1,2,3,4-TETRAMETHYLBENZENE",Cc1ccc(C)c(C)c1C,205,478.15
"Benzene, 1-bromo-2,4-dimethyl-",Cc1cc(C)c(Br)cc1,205,478.15
PHENYL ETHYL SULFIDE,CCSc1ccccc1,205,478.15
"Acetamide, N-ethyl-",CCNC(C)=O,205,478.15
"BENZENE, 1-ETHENYL-4-METHOXY-",COc1ccc(C=C)cc1,205,478.15
"o-Chloro-N,N-dimethylaniline",CN(C)c1ccccc1Cl,205,478.15
"4-Piperidinone, 2,2,6,6-tetramethyl-",CC1(C)CC(=O)CC(C)(C)N1,205,478.15
"BENZENE, 2-CHLORO-1,3,5-TRIMETHYL-",Cc1cc(C)c(Cl)c(C)c1,205,478.15
"BENZENE, (1-ETHYL-1-METHYLPROPYL)-",CC(CC)(CC)c1ccccc1,205,478.15
OCTANONITRILE,CCCCCCCC#N,205.2,478.35
HEXANOIC ACID,CCCCCC(O)=O,205.2,478.35
"2-Furanmethanol, tetrahydro-, propanoate",CCC(=O)OCC1CCCO1,205.5,478.65
"BENZENE, (1,1-DIMETHYLBUTYL)-",CCCC(C)(C)c1ccccc1,205.5,478.65
"Benzenethiol, 2-chloro-",Sc1ccccc1Cl,205.5,478.65
"CAMPHOR, (1R,4R)-(+)-CAMPHOR",CC1(C)C2CC(=O)C1(C)CC2,205.7,478.85
ETHYL LEVULINATE,CC(=O)CCC(=O)OCC,205.8,478.95
"1,2-DIMETHOXYBENZENE",COc1ccccc1OC,206,479.15
4-CHLOROBENZENETHIOL,Sc1ccc(Cl)cc1,206,479.15
Decafluorobiphenyl,Fc1c(-c2c(F)c(F)c(F)c(F)c2F)c(F)c(F)c(F)c1F,206,479.15
"BENZENEETHANAMINE, N-METHYL-",CNCCc1ccccc1,206,479.15
"Benzeneacetonitrile, .alpha.-oxo-",N#CC(=O)c1ccccc1,206,479.15
N-NITROSODIPROPYLAMINE,CCCN(CCC)N=O,206,479.15
"Propanoic acid, 2,3-dibromo-, methyl ester",COC(=O)C(Br)CBr,206,479.15
"1H-Imidazole, 1,2-dimethyl-",Cc1[n]cc[n]1C,206,479.15
3-CHLOROBENZENETHIOL,Sc1cc(Cl)ccc1,206,479.15
7-METHYL-1-OCTANOL,CC(C)CCCCCCO,206,479.15
"1,1,1,3,3,3-HEXACHLOROPROPANE",ClC(Cl)(Cl)CC(Cl)(Cl)Cl,206,479.15
"Butanenitrile, 4-bromo-",N#CCCCBr,206,479.15
"Pentane-1,2-diol",CCCC(O)CO,206,479.15
"BUTANOIC ACID, 2,2-DICHLORO-3-OXO-, ETHYL ESTER",CC(=O)C(Cl)(Cl)C(=O)OCC,206,479.15
"QUINOLINE, DECAHYDRO-, CIS-",C1CCC[C@@H]2NCCC[C@@H]21,206,479.15
"3-Methyl-butane-1,2-diol",CC(C)C(O)CO,206,479.15
"BENZENE, 1,4-DIFLUORO-2-NITRO-",[O-][N+](=O)c1cc(F)ccc1F,206.5,479.65
"Pyridine, 3-butyl-",CCCCc1c[n]ccc1,206.5,479.65
4-DECANONE,CCCC(=O)CCCCCC,206.5,479.65
"Acetic acid, ethoxy-",CCOCC(O)=O,206.5,479.65
"BENZENAMINE, N,3-DIMETHYL-",Cc1cccc(c1)NC,206.5,479.65
Tripropyl phosphite,CCCOP(OCCC)OCCC,206.5,479.65
"ETHANAMINE, N-ETHYL-N-NITRO-",CCN(CC)[N+]([O-])=O,206.5,479.65
3-CYANOPYRIDINE,N#Cc1c[n]ccc1,206.9,480.05
"Benzene, 1-(1,1-dimethylethyl)-3,5-dimethyl-",CC(C)(C)c1cc(C)cc(C)c1,207,480.15
DIETHYLENETRIAMINE,NCCNCCN,207,480.15
"Benzene, 2,4-difluoro-1-nitro-",[O-][N+](=O)c1ccc(F)cc1F,207,480.15
"Carbamic acid, 2-methylpropyl ester",CC(C)COC(N)=O,207,480.15
2-HYDROXYMETHYLTHIOPHENE,OCc1ccc[s]1,207,480.15
(R)-(+)-Citronellal,C[C@H](CCC=C(C)C)CC=O,207,480.15
"BENZENE, 1-CHLORO-3-ETHOXY-",CCOc1cccc(Cl)c1,207,480.15
(-)-Menthone,CC(C)[C@@H]1CC[C@@H](C)CC1=O,207,480.15
2-Ethylhexyl Chloroformate,CCCCC(COC(=O)Cl)CC,207,480.15
"BICYCLO[2.2.1]HEPTANE, 2-CHLORO-1,7,7-TRIMETHYL-",CC1(C)C2CC(Cl)C1(C)CC2,207.5,480.65
2H-PYRAN-2-ONE,O=C1C=CC=CO1,207.5,480.65
Vancide-TH,CCN1CN(CN(C1)CC)CC,207.5,480.65
"Benzene, 1,2-dichloro-3-methyl-",Cc1cccc(Cl)c1Cl,207.5,480.65
DIETHYL SULFATE,CCOS(=O)(=O)OCC,208,481.15
"1,3-Butanediol, 2,2-dimethyl-",CC(O)C(C)(C)CO,208,481.15
BROMOACETIC ACID,OC(=O)CBr,208,481.15
"ETHANOL, 2-(HEXYLOXY)-",CCCCCCOCCO,208,481.15
PYRIDAZINE,c1ccc[n][n]1,208,481.15
O-TOLYLACETATE,Cc1ccccc1OC(C)=O,208,481.15
"4-Pentenoic acid, 2-acetyl-, ethyl ester",CC(=O)C(CC=C)C(=O)OCC,208,481.15
"BUTANEDIOIC ACID, METHYLENE-, DIMETHYL ESTER",COC(=O)CC(=C)C(=O)OC,208,481.15
N-BUTYL HEXANOATE,CCCCCC(=O)OCCCC,208,481.15
2-METHYL-1H-INDENE,CC1Cc2ccccc2C=1,208,481.15
"I-NICOTINIC ACID, METHYL ESTER",COC(=O)c1cc[n]cc1,208,481.15
"Butanoic acid, hexyl ester",CCCC(=O)OCCCCCC,208,481.15
"BENZENE, [(1-METHYLETHYL)THIO]-",CC(C)Sc1ccccc1,208,481.15
CYCLOHEXANEETHANOL,OCCC1CCCCC1,208,481.15
"BENZENE, (1-METHYLPENTYL)-",CCCCC(C)c1ccccc1,208,481.15
"1H-IMIDAZOLE, 1-ETHYL-",CC[n]1c[n]cc1,208,481.15
Heptanoic acid propyl ester,CCCOC(=O)CCCCCC,208,481.15
"Heptanoic acid, 2-methylpropyl ester",CCCCCCC(=O)OCC(C)C,208,481.15
1-Isopropyl-4-methylene-bicyclo[3.1.0]hexan-3-ol,CC(C)C12CC(O)C(=C)C1C2,208,481.15
"BUTANEDIOIC ACID, ETHYL METHYL ESTER",COC(=O)CCC(=O)OCC,208.2,481.35
ETHYL OCTANOATE,CCCCCCCC(=O)OCC,208.5,481.65
N-DECANAL,CCCCCCCCCC=O,208.5,481.65
"2-CYCLOHEXEN-1-ONE, 3,5-DIMETHYL-",CC1C[C@@H](C)CC(=O)C=1,208.5,481.65
"2-Pyridinamine, 6-methyl-",Cc1cccc(N)[n]1,208.5,481.65
"1,11-DODECADIENE",C=CCCCCCCCCC=C,208.5,481.65
"Cyclohexanol, 1-methyl-4-(1-methylethyl)-",CC(C)C1CCC(C)(O)CC1,208.5,481.65
2-CHLOROANILINE,Nc1ccccc1Cl,208.8,481.95
"3,4-DICHLOROTOLUENE",Cc1cc(Cl)c(Cl)cc1,208.9,482.05
ARECOLINE,CN1CC(=CCC1)C(=O)OC,209,482.15
TRI-n-BUTYLBORANE,CCCCB(CCCC)CCCC,209,482.15
Octafluoronaphthalene,Fc1c2c(c(F)c(F)c1F)c(F)c(F)c(F)c2F,209,482.15
"3-Cyclohexen-1-ol, 4-methyl-1-(1-methylethyl)-",CC(C)C1(O)CC=C(C)CC1,209,482.15
"2(5H)-FURANONE, 5-METHYL-",CC1C=CC(=O)O1,209,482.15
"Benzenamine, N,N-diethyl-2-methyl-",Cc1ccccc1N(CC)CC,209,482.15
"BENZENE, 2-ETHENYL-1,3,5-TRIMETHYL-",Cc1cc(C)c(C=C)c(C)c1,209,482.15
5-Hydroxy-2-pentanone,CC(=O)CCCO,209,482.15
"UREA, TETRAETHYL-",CCN(CC)C(=O)N(CC)CC,209,482.15
"Sulfurous diamide, tetramethyl-",CN(C)S(=O)N(C)C,209,482.15
"PYRIDINE, 4-BUTYL-",CCCCc1cc[n]cc1,209,482.15
4-Methyl-1H-indene,Cc1cccc2CC=Cc21,209,482.15
7-Methyl-1H-indene,Cc1cccc2C=CCc21,209,482.15
2-METHYL-4-CHLOROPHENOL,Cc1cc(Cl)ccc1O,209.25,482.4
4-Oxo-pentanoic acid isopropyl ester,CC(=O)CCC(=O)OC(C)C,209.3,482.45
"1,3-PROPANEDIOL, DIACETATE",CC(=O)OCCCOC(C)=O,209.5,482.65
"Acetamide, N,N-dipropyl-",CC(=O)N(CCC)CCC,209.5,482.65
PERCHLOROPROPYLENE,ClC(Cl)=C(Cl)C(Cl)(Cl)Cl,209.5,482.65
O-ETHYLANILINE,CCc1ccccc1N,209.65,482.8
2-METHYLCYCLOHEXYL ACRYLATE,CC1CCCCC1OC(=O)C=C,210,483.15
"Acetic acid, octyl ester",CCCCCCCCOC(C)=O,210,483.15
"2,4-DICHLOROPHENOL",Oc1ccc(Cl)cc1Cl,210,483.15
"Benzoic acid, 4-fluoro-, ethyl ester",CCOC(=O)c1ccc(F)cc1,210,483.15
"BENZENEMETHANOL, 4-FLUORO-",OCc1ccc(F)cc1,210,483.15
2-IODOOCTANE,CCCCCC[C@H](C)I,210,483.15
"2,3-DICHLOROPROPIONIC ACID",OC(=O)C(Cl)CCl,210,483.15
2-Acetyl-3-oxo-butyric acid ethyl ester,CCOC(=O)C(C(C)=O)C(C)=O,210,483.15
"Propanedioic acid, oxo-, diethyl ester",CCOC(=O)C(=O)C(=O)OCC,210,483.15
"BENZENE, 1-CHLORO-2-ETHOXY-",CCOc1ccccc1Cl,210,483.15
N-METHYL P-TOLUIDINE,Cc1ccc(cc1)NC,210,483.15
2-DECANONE,CCCCCCCCC(C)=O,210,483.15
"N,N-DIMETHYL O-ANISIDINE",COc1ccccc1N(C)C,210,483.15
"Benzene,  (methylthio)methyl -",CSCc1ccccc1,210,483.15
2-ACETYL-4-METHYLPHENOL,Cc1cc(c(O)cc1)C(C)=O,210,483.15
1-Ethoxy-4-ethylbenzene,CCOc1ccc(CC)cc1,210,483.15
"PROPANOIC ACID, HEPTYL ESTER",CCCCCCCOC(=O)CC,210,483.15
"FURAN, 2,5-BIS(1,1-DIMETHYLETHYL)-",CC(C)(C)c1ccc(o1)C(C)(C)C,210,483.15
M-CYANOBENAZLDEHYDE,N#Cc1cccc(C=O)c1,210,483.15
"1,4-DIISOPROPYLBENZENE",CC(C)c1ccc(cc1)C(C)C,210.3,483.45
Pentafluorobenzenesulfonyl chloride,O=S(=O)(Cl)c1c(F)c(F)c(F)c(F)c1F,210.5,483.65
4-DECANOL,CCCC(O)CCCCCC,210.5,483.65
"2,4-DIMETHYLPHENOL",Cc1cc(C)c(O)cc1,210.9,484.05
"3-FURANCARBOXYLIC ACID, PROPYL ESTER",CCCOC(=O)c1cocc1,210.9,484.05
"N,N,4-TRIMETHYLANILINE",Cc1ccc(cc1)N(C)C,211,484.15
"1,2-ETHANEDIOL, DIPROPANOATE",CCC(=O)OCCOC(=O)CC,211,484.15
Perfluorobutane-1-sulfonic Acid,OS(=O)(=O)C(F)(F)C(F)(F)C(F)(F)C(F)(F)F,211,484.15
DIISOAMYL SULFIDE,CC(C)CCSCCC(C)C,211,484.15
Oxalic acid dipropyl ester,CCCOC(=O)C(=O)OCCC,211,484.15
"Benzene, 1-iodo-4-methyl-",Cc1ccc(I)cc1,211,484.15
"Propanoic acid, phenyl ester",CCC(=O)Oc1ccccc1,211,484.15
PROPYL BENZOATE,CCCOC(=O)c1ccccc1,211,484.15
1-BROMO-3-METHOXYBENZENE,COc1cccc(Br)c1,211,484.15
"2,6-DICHLOROPYRIDINE",Clc1cccc(Cl)[n]1,211,484.15
"PROPANOIC ACID, 3-CYANO-, METHYL ESTER",COC(=O)CCC#N,211,484.15
"Cyclohexaneacetic acid, ethyl ester",CCOC(=O)CC1CCCCC1,211,484.15
"BENZENE, (3-CHLOROALLYL)-",ClC=CCc1ccccc1,211,484.15
"2-(chloromethyl)-1,2,3-trichloropropane",ClC(CCl)(CCl)CCl,211,484.15
"1,5-Dimethyl-3-chloropyrazole",Cc1cc(Cl)[n][n]1C,211,484.15
"2,5-DIMETHYLPHENOL",Cc1cc(O)c(C)cc1,211.1,484.25
"Benzene, 1-methoxy-4-propyl-",CCCc1ccc(cc1)OC,211.5,484.65
O-IODOTOLUENE,Cc1ccccc1I,211.5,484.65
"Benzene, (2-methoxyethenyl)-",COC=Cc1ccccc1,211.5,484.65
"2,4-PENTANEDIOL, 3-METHYL-",CC(C(C)O)C(C)O,211.5,484.65
2-CHLOROBENZALDEHYDE,O=Cc1ccccc1Cl,211.9,485.05
"MENTHOL, MENTHOL (L)",CC(C)C1CCC(C)CC1O,212,485.15
ETHYL BENZOATE,CCOC(=O)c1ccccc1,212,485.15
"M-TOLUIDINE-N,N-DIMETHYL",Cc1cccc(c1)N(C)C,212,485.15
Isobutyl benzyl ether,CC(C)COCc1ccccc1,212,485.15
4-ACETYLPYRIDINE,CC(=O)c1cc[n]cc1,212,485.15
2-Bromoethylcyclohexane,BrCCC1CCCCC1,212,485.15
4-BROMOSTYRENE,C=Cc1ccc(Br)cc1,212,485.15
Cyclopentanecarboxylic acid,OC(=O)C1CCCC1,212,485.15
"1H-INDENE, 1-ETHYL-2,3-DIHYDRO-",CCC1CCc2ccccc21,212,485.15
"2,6,6-Trimethyl-bicyclo[3.1.1]heptan-3-one",CC1C2CC(CC1=O)C2(C)C,212,485.15
"3,7-Dimethyloctan-1-ol",CC(C)CCCC(C)CCO,212.5,485.65
4H-PYRAN-4-ONE,O=C1C=COC=C1,212.5,485.65
"Benzene, 1-(bromomethyl)-3-methyl-",Cc1cc(CBr)ccc1,212.5,485.65
Butyric acid furan-2-ylmethyl ester,CCCC(=O)OCc1ccco1,212.5,485.65
"Pyrimidine, 2,4,6-trichloro-",Clc1[n]c(Cl)cc(Cl)[n]1,212.5,485.65
P-DIMETHOXYBENZENE,COc1ccc(cc1)OC,212.6,485.75
PROPRIONAMIDE,CCC(N)=O,213,486.15
BENZYL ACETATE,CC(=O)OCc1ccccc1,213,486.15
2-Nitro-4-fluorotoluene,Cc1ccc(F)cc1[N+]([O-])=O,213,486.15
"5-METHYL-2-CHLOROPHENOL, PHENOL, 2-CHLORO-5-METHYL-",Cc1ccc(Cl)c(O)c1,213,486.15
"Benzene, 1-chloro-4-ethoxy-",CCOc1ccc(Cl)cc1,213,486.15
"Benzene, 1-iodo-3-methyl-",Cc1cc(I)ccc1,213,486.15
"Butanoic acid, cyclohexyl ester",CCCC(=O)OC1CCCCC1,213,486.15
"BENZENE, 1-ETHYL-2,4,5-TRIMETHYL-",CCc1cc(C)c(C)cc1C,213,486.15
1-NONANOL,CCCCCCCCCO,213.3,486.45
O-ISOPROPYLPHENOL,CC(C)c1ccccc1O,213.5,486.65
4-CYANOPYRIDINE,N#Cc1cc[n]cc1,213.5,486.65
2-ETHYLHEXYL ACRYLATE,CCCCC(COC(=O)C=C)CC,213.5,486.65
4-CHLOROBENZALDEHYDE,O=Cc1ccc(Cl)cc1,213.5,486.65
"1,2,4-TRICHLOROBENZENE",Clc1cc(Cl)c(Cl)cc1,213.5,486.65
M-CHLOROBENZALDEHYDE,O=Cc1cccc(Cl)c1,213.5,486.65
"2,5-Furandione, 3-methyl-",CC1=CC(=O)OC1=O,213.5,486.65
"Benzoyl chloride, 2-methyl-",Cc1ccccc1C(=O)Cl,213.5,486.65
"Morpholine, 4-butyl-",CCCCN1CCOCC1,213.5,486.65
METHYL NONANOATE,CCCCCCCCC(=O)OC,213.5,486.65
N-DODECENE,CCCCCCCCCCC=C,213.8,486.95
"Butane, 1,2,2-tribromo-",CCC(Br)(Br)CBr,213.8,486.95
"2,4-DIMETHYLANILINE",Cc1cc(C)c(N)cc1,214,487.15
"2,5-DIMETHYLANILINE",Cc1cc(N)c(C)cc1,214,487.15
3-CHLOROPHENOL,Oc1cc(Cl)ccc1,214,487.15
"2,5-Hexanediol, 2,5-dimethyl-",CC(C)(O)CCC(C)(C)O,214,487.15
"3-Bromo-1,2-dimethylbenzene",Cc1cccc(Br)c1C,214,487.15
"ETHANONE, 1-(2-METHYLPHENYL)-",Cc1ccccc1C(C)=O,214,487.15
"2,4-Dioxo-pentanoic acid ethyl ester",CC(=O)CC(=O)C(=O)OCC,214,487.15
N-NITROSOPYRROLIDINE,O=NN1CCCC1,214,487.15
"PENTANEDIOIC ACID, DIMETHYL ESTER",COC(=O)CCCC(=O)OC,214,487.15
"PYRIDAZINE, 3-METHYL-",Cc1ccc[n][n]1,214,487.15
"BENZENEETHANAMINE, 4-METHYL-",Cc1ccc(CCN)cc1,214,487.15
2-Diisobutylamino-ethanol,CC(C)CN(CCO)CC(C)C,214,487.15
"Methanimidic acid, N-phenyl-, ethyl ester",CCOC=Nc1ccccc1,214,487.15
"N,N,2,4,6-PENTAMETHYLANILINE",Cc1cc(C)c(c(C)c1)N(C)C,214,487.15
"BENZENE, 4-BROMO-1,2-DIMETHYL-",Cc1cc(Br)ccc1C,214.5,487.65
2-Cyano-2-ethyl-butyric acid ethyl ester,CCOC(=O)C(CC)(CC)C#N,214.5,487.65
"Propanoic acid, 2,3-dibromo-, ethyl ester",CCOC(=O)C(Br)CBr,214.5,487.65
"2,6-DIMETHYLANILINE",Cc1cccc(C)c1N,215,488.15
"Benzenamine, 2-chloro-6-methyl-",Cc1cccc(Cl)c1N,215,488.15
HEXACHLOROBUTADIENE,ClC(Cl)=C(Cl)C(Cl)=C(Cl)Cl,215,488.15
"O-TOLUIC ACID, METHYL ESTER",Cc1ccccc1C(=O)OC,215,488.15
"Benzeneethanol, .alpha.,.alpha.-dimethyl-",CC(C)(O)Cc1ccccc1,215,488.15
4-BROMOANISOLE,COc1ccc(Br)cc1,215,488.15
BENZISOXAZOLE,c1[n]oc2ccccc21,215,488.15
1-FLUORONAPHTHALENE,Fc1cccc2ccccc21,215,488.15
E-CAPROLACTONE,O=C1CCCCCO1,215,488.15
"PROPANEDIOIC ACID, (1-METHYLETHYL)-, DIETHYL EST",CC(C)C(C(=O)OCC)C(=O)OCC,215,488.15
1-Dodecyne,CCCCCCCCCCC#C,215,488.15
"Butanoic acid, 3-methyl-, anhydride",CC(C)CC(=O)OC(=O)CC(C)C,215,488.15
"(2,6,6-Trimethyl-cyclohex-2-enyl)-methanol",CC1=CCCC(C)(C)C1CO,215,488.15
Nonanoyl chloride,CCCCCCCCC(=O)Cl,215.3,488.45
TRIETHYL PHOSPHATE,CCOP(=O)(OCC)OCC,215.5,488.65
"Benzene, 1-methoxy-4-(2-propenyl)-",COc1ccc(CC=C)cc1,215.5,488.65
M-METHYLBENZYL ALCOHOL,Cc1cc(CO)ccc1,215.5,488.65
"1,2-Benzenediamine, N,N,N',N'-tetramethyl-",CN(C)c1ccccc1N(C)C,215.5,488.65
"Benzene, 1-(chloromethyl)-2,4-dimethyl-",Cc1cc(C)c(CCl)cc1,215.5,488.65
"4-NONENE, 5-BUTYL-",CCCC=C(CCCC)CCCC,215.5,488.65
"1,3,5-TRIETHYLBENZENE",CCc1cc(CC)cc(CC)c1,215.9,489.05
2-NITROPHENOL,[O-][N+](=O)c1ccccc1O,216,489.15
"Benzenamine, N-ethyl-2-methyl-",Cc1ccccc1NCC,216,489.15
DI-2-CHLOROETHYL SULFIDE,ClCCSCCCl,216,489.15
BUTYRAMIDE,CCCC(N)=O,216,489.15
"Benzene, 1-chloro-3-(chloromethyl)-",Clc1cccc(CCl)c1,216,489.15
5-Methylhexanoic acid,CC(C)CCCC(O)=O,216,489.15
"Propane, 1,1'-oxybis 3-chloro-",ClCCCOCCCCl,216,489.15
"Cyclopropane-1,1-dicarboxylic acid diethyl ester",CCOC(=O)C1(CC1)C(=O)OCC,216,489.15
"Pyridine, 2-(3-pentenyl)-",CC=CCCc1cccc[n]1,216,489.15
"2-HEXANONE, 6-BROMO-",CC(=O)CCCCBr,216,489.15
"1,1,1,2,2,3-hexachloropropane",ClC(Cl)(Cl)C(Cl)(Cl)CCl,216,489.15
"N,N-DIETHYLANILINE",CCN(CC)c1ccccc1,216.3,489.45
DODECANE,CCCCCCCCCCCC,216.3,489.45
TRI N-BUTYLAMINE,CCCCN(CCCC)CCCC,216.5,489.65
1-PHENYL-2-PROPANONE,CC(=O)Cc1ccccc1,216.5,489.65
"1-CHLORO-2,5-PYRROLIDINEDIONE",O=C1CCC(=O)N1Cl,216.5,489.65
2-Hexenoic acid,CCCC=CC(O)=O,216.5,489.65
"BENZENE, 1-(BROMOMETHYL)-2-METHYL-",Cc1ccccc1CBr,217,490.15
O-ETHOXYPHENOL,CCOc1ccccc1O,217,490.15
4-METHYLBENZONITRILE,Cc1ccc(cc1)C#N,217,490.15
1-NO2 2-CF3 BENZENE,[O-][N+](=O)c1ccccc1C(F)(F)F,217,490.15
P-METHYL BENZYL ALCOHOL,Cc1ccc(CO)cc1,217,490.15
"Benzene, 1-chloro-2-(chloromethyl)-",Clc1ccccc1CCl,217,490.15
"Ethanedioic acid, di-2-propenyl ester",C=CCOC(=O)C(=O)OCC=C,217,490.15
"BENZENE, 1-PENTENYL-",CCCC=Cc1ccccc1,217,490.15
gamma-Aminopropyltriethoxysilane,CCO[Si](CCCN)(OCC)OCC,217,490.15
O-MERCAPTOPHENOL,Oc1ccccc1S,217,490.15
GLUTARYL CHLORIDE,O=C(Cl)CCCC(=O)Cl,217,490.15
"2-PYRROLIDINONE, 1,5-DIMETHYL-",CC1CCC(=O)N1C,217,490.15
"3,6-Dithiaoctane",CCSCCSCC,217,490.15
"2-Pentenoic acid, 4-methyl-",CC(C)C=CC(O)=O,217,490.15
"2-CYCLOHEXEN-1-ONE, 3,4,4-TRIMETHYL-",CC1=CC(=O)CCC1(C)C,217,490.15
"Ethanol, 2-(2-(2-methylpropoxy)ethoxy)-",CC(C)COCCOCCO,217,490.15
"Benzenemethanol, .alpha.-ethynyl-.alpha.-methyl-",CC(O)(C#C)c1ccccc1,217.5,490.65
M-DIMETHOXYBENZENE,COc1cc(ccc1)OC,217.5,490.65
P-ETHYLANILINE,CCc1ccc(N)cc1,217.5,490.65
"Benzaldehyde, 2-hydroxy-5-methyl-",Cc1cc(C=O)c(O)cc1,217.5,490.65
2-Methyl-succinic acid diethyl ester,CCOC(=O)C(C)CC(=O)OCC,217.5,490.65
5-Isopropyl-2-methyl-cyclohexanol,CC(C)[C@H]1C[C@@H](O)[C@H](C)CC1,217.5,490.65
"NONANE, 5-BUTYL-",CCCCC(CCCC)CCCC,217.5,490.65
DIETHYL SUCCINATE,CCOC(=O)CCC(=O)OCC,217.7,490.85
METARAMINOL,C[C@H](N)[C@H](O)c1cc(O)ccc1,218,491.15
M-DIBROMOBENZENE,Brc1cc(Br)ccc1,218,491.15
"Propanamide, 2-methyl-",CC(C)C(N)=O,218,491.15
"BENZENE, 1,2,4-TRIETHYL-",CCc1ccc(CC)cc1CC,218,491.15
PYRROLE-2-CARBOXALDEHYDE,O=Cc1ccc[nH]1,218,491.15
"THIOPHENE, 2-ETHYL CARBOXYLATE",CCOC(=O)c1ccc[s]1,218,491.15
"1,2-Benzenediamine, N,N-dimethyl-",CN(C)c1ccccc1N,218,491.15
"2,5-Hexanediol",C[C@H](O)CC[C@H](C)O,218,491.15
1-Acetyl-piperidin-4-one,CC(=O)N1CCC(=O)CC1,218,491.15
"5,6,7,8-Tetrahydro-isoquinoline",C1CCCc2cc[n]cc21,218,491.15
2-PHENYLETHANOL,OCCc1ccccc1,218.2,491.35
M-ETHYLPHENOL,CCc1cccc(O)c1,218.4,491.55
"1,4-DIBROMOBENZENE",Brc1ccc(Br)cc1,218.5,491.65
MALONONITRILE,N#CCC#N,218.5,491.65
Methyl heptine carbonate,CCCCCC#CC(=O)OC,218.5,491.65
"DIETHYL MALEATE, 2-Butenedioic acid (E)-, diethyl ester",CCOC(=O)/C=C\C(=O)OCC,218.5,491.65
"Benzene, (2-chloroethoxy)-",ClCCOc1ccccc1,218.5,491.65
"Benzoxazole, 2,5-dimethyl-",Cc1cc2[n]c(C)oc2cc1,218.5,491.65
"1,1,2,2,3,3-hexachloropropane",ClC(Cl)(C(Cl)Cl)C(Cl)Cl,218.5,491.65
1-ISOPROPYL-4-BROMOBENZENE,CC(C)c1ccc(Br)cc1,218.7,491.85
?-Ethylbenzyl alcohol,CCC(O)c1ccccc1,219,492.15
(2-BROMOETHYL)BENZENE,BrCCc1ccccc1,219,492.15
Triisopropylphosphate,CC(C)OP(=O)(OC(C)C)OC(C)C,219,492.15
"Benzenemethanol, .alpha.,4-dimethyl-",Cc1ccc(cc1)[C@H](C)O,219,492.15
D-VALEROLACTONE,O=C1CCCCO1,219,492.15
N-ALLYL-ANILIN,C=CCNc1ccccc1,219,492.15
"BENZENE, CYCLOPENTYL-",C1CCCC1c1ccccc1,219,492.15
"Benzene, 1,2-diethoxy-",CCOc1ccccc1OCC,219,492.15
"Pyrimidine, 2,4-dichloro-6-methyl-",Cc1cc(Cl)[n]c(Cl)[n]1,219,492.15
"2,3,5-TRICHLOROPYRIDINE",Clc1c[n]c(Cl)c(Cl)c1,219,492.15
"BENZENE, 1-(ETHYLTHIO)-3-METHYL-",Cc1cccc(c1)SCC,219,492.15
"ALPHA-TERPINEOL, 2-(4-Methyl-cyclohex-3-enyl)-propan-2-ol, 2-(4-METHYL-3-CYLOHEXENYL)ISOPROPANOL",CC1CCC(CC=1)C(C)(C)O,219.17,492.3166667
"PROPYLBROMIDE, G-PHENYL",BrCCCc1ccccc1,219.5,492.65
"ISONICOTINIC ACID, ETHYL ESTER",CCOC(=O)c1cc[n]cc1,219.5,492.65
"Benzoyl chloride, 3-methyl-",Cc1cc(ccc1)C(=O)Cl,219.5,492.65
"BENZENEMETHANOL, 3,5-DIMETHYL-",Cc1cc(CO)cc(C)c1,219.5,492.65
FORMAMIDE,NC=O,220,493.15
"BENZOIC ACID, 4-METHYL-, METHYL ESTER",Cc1ccc(cc1)C(=O)OC,220,493.15
"Benzene, (2,2-dimethoxyethyl)-",COC(Cc1ccccc1)OC,220,493.15
"Benzene, 1-(bromomethyl)-4-methyl-",Cc1ccc(CBr)cc1,220,493.15
4-CHLOROPHENOL,Oc1ccc(Cl)cc1,220,493.15
BENZYL PROPIONATE,CCC(=O)OCc1ccccc1,220,493.15
4-Morpholinepropanamine,NCCCN1CCOCC1,220,493.15
1-Piperazineethanamine,NCCN1CCNCC1,220,493.15
"Benzene, 1,2-dimethoxy-4-methyl-",Cc1ccc(OC)c(c1)OC,220,493.15
"2,4,6-TRIMETHYLPHENOL",Cc1cc(C)c(O)c(C)c1,220,493.15
BENZAL DIACETATE,CC(=O)OC(OC(C)=O)c1ccccc1,220,493.15
M-METHYLACETOPHENONE,Cc1cccc(c1)C(C)=O,220,493.15
3-Isopropyl-6-methyl-cyclohex-2-enol,CC(C)C1CCC(C)C(O)C=1,220,493.15
Pentafluorobenzoic Acid,OC(=O)c1c(F)c(F)c(F)c(F)c1F,220,493.15
"1-PROPANONE, 2-METHYL-1-PHENYL-",CC(C)C(=O)c1ccccc1,220,493.15
"Benzenamine, 2-chloro-4-methyl-",Cc1cc(Cl)c(N)cc1,220,493.15
"BENZENE, 1-(ETHYLTHIO)-4-METHYL-",Cc1ccc(cc1)SCC,220,493.15
O-PROPYLPHENOL,CCCc1ccccc1O,220,493.15
"BENZENE, (PROPYLTHIO)-",CCCSc1ccccc1,220,493.15
2-ACETYLPYRROLE,CC(=O)c1ccc[nH]1,220,493.15
"1,3-Cyclohexanedimethanamine",NCC1CC(CCC1)CN,220,493.15
"BENZALDEHYDE, 2,5-DIMETHYL-",Cc1cc(C=O)c(C)cc1,220,493.15
"1H-INDEN-1-OL, 2,3-DIHYDRO-",O[C@@H]1CCc2ccccc21,220,493.15
2-Propenyl-phenol,CC=Cc1ccccc1O,220,493.15
"BENZENE, (3-METHYLPENTYL)-",CCC(C)CCc1ccccc1,220,493.15
n-Decyl Chloroformate,CCCCCCCCCCOC(=O)Cl,220,493.15
"3,5-DIMETHYLANILINE",Cc1cc(N)cc(C)c1,220.5,493.65
Myrtenal,CC1(C)C2CC1CCC2C=O,220.5,493.65
"BENZENE, [2-METHYL-1-(1-METHYLETHYL)PROPYL]-",CC(C)C(C(C)C)c1ccccc1,220.7,493.85
"BENZENE, 1-(1-METHYLETHENYL)-4-(1-METHYLETHYL)-",CC(=C)c1ccc(cc1)C(C)C,220.8,493.95
4-Methyl-2-methoxyphenol,Cc1ccc(O)c(c1)OC,221,494.15
"Benzenamine, N-ethyl-3-methyl-",Cc1cccc(c1)NCC,221,494.15
ETHYLENE CYANOHYDRIN,N#CCCO,221,494.15
"CYCLOPENTANECARBOXYLIC ACID, 2-OXO-, ETHYL ESTER",CCOC(=O)C1CCCC1=O,221,494.15