NAME,SMILES,BP_C,BP_K
"3,4-HEXANEDIONE, 2,5-DIMETHYL-",CC(C)C(=O)C(=O)C(C)C,144.5,417.65
"Ethane, 1,1,1-triethoxy-",CC(OCC)(OCC)OCC,145,418.15
STYRENE,C=Cc1ccccc1,145,418.15
BUTYL ACRYLATE,CCCCOC(=O)C=C,145,418.15
FURAN-3-CARBOXALDEHYDE,O=Cc1cocc1,145,418.15
"Ethanol, 2-chloro-, acetate",CC(=O)OCCCl,145,418.15
"1,1-Dichloro-1-nitropropane",CCC(Cl)(Cl)[N+]([O-])=O,145,418.15
"PENTANE, 2,4-DICHLORO-",CC(Cl)CC(C)Cl,145,418.15
"1,4-CYCLOOCTADIENE",C1C=CCCCC=C1,145,418.15
"Silane, trichloro(dichloromethyl)-",ClC(Cl)[Si](Cl)(Cl)Cl,145,418.15
"Thiazole, 4,5-dihydro-2-methyl-",CC1=NCCS1,145,418.15
HEPTANOYL CHLORIDE,CCCCCCC(=O)Cl,145,418.15
"Cyclohexene, 1-ethenyl-",C=CC1CCCCC=1,145,418.15
"2,4,6-Trimethyl-piperidine",CC1CC(C)NC(C)C1,145,418.15
METHYL PENTYL SULFIDE,CCCCCSC,145.1,418.25
4-METHYLPYRIDINE,Cc1cc[n]cc1,145.3,418.45
HYDROXYACETONE,CC(=O)CO,145.5,418.65
3-HYDROXY-4-CHLORO-1-BUTENE,C=CC(O)CCl,145.5,418.65
"1,1,3-trichloropropane",ClCCC(Cl)Cl,145.5,418.65
PENTAFLUOROPHENOL,Oc1c(F)c(F)c(F)c(F)c1F,145.6,418.75
"Furan, tetrahydro-2,5-dimethoxy-",COC1CCC(O1)OC,145.7,418.85
"2H-Pyran-2-carboxaldehyde, 3,4-dihydro-",O=CC1CCC=CO1,146,419.15
PIPERAZINE,C1CNCCN1,146,419.15
"1,2-ETHANEDIAMINE, N,N'-DIETHYL-",CCNCCNCC,146,419.15
"BICYCLO[2.2.1]HEPT-2-ENE, 1,7,7-TRIMETHYL-",CC1(C)C2CC[C@@]1(C)C=C2,146,419.15
"2,4-DIMETHYLTHIAZOLE",Cc1[n]c(C)c[s]1,146,419.15
"1-BUTANOL, 3-METHYL-, NITRATE, ISOPENTYL NITRATE",CC(C)CCO[N+]([O-])=O,146,419.15
3-Methyl-but-2-enoyl chloride,CC(C)=CC(=O)Cl,146,419.15
"2,5-DIMETHYL-1,3,5-HEXATRIENE",CC(=C)C=CC(C)=C,146,419.15
ETHYLIDENE NORBORNENE,CC=C1CC2CC1C=C2,146,419.15
ETHYL VALERATE,CCCCC(=O)OCC,146.1,419.25
"3,3-DIETHYLPENTANE",CCC(CC)(CC)CC,146.3,419.45
"N,N-Diethyl-2-chloroethylamine",CCN(CCCl)CC,146.5,419.65
"CYCLOPENTANONE, 2,5-DIMETHYL-",CC1CCC(C)C1=O,146.5,419.65
(E)-2-HEXENAL,CCC/C=C/C=O,146.5,419.65
"2-Propanol, 1-bromo-",CC(O)CBr,146.5,419.65
"Morpholine, 2,6-dimethyl-",CC1CNCC(C)O1,146.6,419.75
"BUTANE, 1,3-DICHLORO-3-METHYL-",CC(C)(Cl)CCCl,146.7,419.85
N-BUTYL PROPIONATE,CCCCOC(=O)CC,146.8,419.95
ISONONENE,CCCCCCCC=C,146.9,420.05
"Piperidine, 1,2,2,6,6-pentamethyl-",CN1C(C)(C)CCCC1(C)C,147,420.15
2-ETHYL-1-BUTANOL,CCC(CO)CC,147,420.15
"Cyclohexanamine, N-methyl-",CNC1CCCCC1,147,420.15
3-HEPTANONE,CCCCC(=O)CC,147,420.15
SARIN,CC(C)OP(C)(=O)F,147,420.15
"Propanoyl chloride, 2-phenoxy-",CC(Oc1ccccc1)C(=O)Cl,147,420.15
ETHYL ALPHA-CHLOROPROPIONATE,CCOC(=O)[C@H](C)Cl,147,420.15
"Butane, 1-iodo-3-methyl-",CC(C)CCI,147,420.15
2-CYANOFURAN,N#Cc1ccco1,147,420.15
N-AMINOPIPERIDINE,NN1CCCCC1,147,420.15
"3-HEXANONE, 2,2-DIMETHYL-",CCCC(=O)C(C)(C)C,147,420.15
"CARBONIC ACID, BIS(1-METHYLETHYL) ESTER",CC(C)OC(=O)OC(C)C,147,420.15
"1,4-Oxathiane",C1CSCCO1,147,420.15
"HEXANE, 4-ETHYL-2,2-DIMETHYL-",CC(C)(C)CC(CC)CC,147,420.15
4-METHYL-2-PENTYL ACETATE,CC(C)CC(C)OC(C)=O,147.5,420.65
4-CHLOROPYRIDINE,Clc1cc[n]cc1,147.5,420.65
"3-HEXANONE, 2,5-DIMETHYL-",CC(C)C(=O)CC(C)C,147.5,420.65
"1,1-Diethoxy-but-2-ene",CC=CC(OCC)OCC,147.5,420.65
"METHANESULFENYL FLUORIDE, TRIFLUORO-",FSC(F)(F)F,147.5,420.65
"2-BUTENAL, 2-CHLORO-",CC=C(Cl)C=O,147.5,420.65
"2,4,6-TRIMETHYLHEPTANE",CC(CC(C)C)CC(C)C,147.6,420.75
"5,5,5-TRIFLUORO-1-PENTANOL",OCCCCC(F)(F)F,147.75,420.9
"2,2,4,5-TETRAMETHYLHEXANE",CC(C)C(C)CC(C)(C)C,147.9,421.05
3-CHLOROPYRIDINE,Clc1c[n]ccc1,148,421.15
2-Butyn-1-ol,CC#CCO,148,421.15
"Methane, bis(methylthio)-",CSCSC,148,421.15
Methyl thioglycolate,COC(=O)CS,148,421.15
"PROPANE, 1,2,3-TRIMETHOXY-",COC(COC)COC,148,421.15
"PENTANE, 1-BROMO-3-METHYL-",CCC(C)CCBr,148,421.15
"HEPTANE, 2,2,4-TRIMETHYL-",CCCC(C)CC(C)(C)C,148.3,421.45
"2,2,3,5-TETRAMETHYLHEXANE",CC(C)CC(C)C(C)(C)C,148.4,421.55
"Acetyl bromide, bromo-",O=C(Br)CBr,148.5,421.65
Butyl trichloro silane,CCCC[Si](Cl)(Cl)Cl,148.5,421.65
3-Methyl-cyclopentanol,C[C@H]1C[C@@H](O)CC1,148.5,421.65
2-ETHYLPYRIDINE,CCc1cccc[n]1,148.6,421.75
"2,2,6-TRIMETHYLHEPTANE",CC(C)CCCC(C)(C)C,148.9,422.05
CYCLOOCTANE,C1CCCCCCC1,149,422.15
Amino-acetic acid ethyl ester,CCOC(=O)CN,149,422.15
BROMONITROMETHANE,[O-][N+](=O)CBr,149,422.15
"1,1,1-TRICHLOROACETONE",CC(=O)C(Cl)(Cl)Cl,149,422.15
1-HEXYN-5-ONE,CC(=O)CCC#C,149,422.15
"1,1,1-TRICHLORO-2,3-EPOXYPROPANE",ClC(Cl)(Cl)C1CO1,149,422.15
"2-Furanmethanamine, N-methyl-",CNCc1ccco1,149,422.15
2-Ethoxymethyl-furan,CCOCc1ccco1,149,422.15
"Ethane, 2-bromo-1,1-dimethoxy-",COC(CBr)OC,149,422.15
"Silane, chloro(dichloromethyl)dimethyl-",C[Si](C)(Cl)C(Cl)Cl,149,422.15
"2-HEXANONE, 3,3-DIMETHYL-",CCCC(C)(C)C(C)=O,149,422.15
BROMOFORM,BrC(Br)Br,149.1,422.25
"Propane, 2,2'-thiobis 2-methyl-",CC(C)(C)SC(C)(C)C,149.1,422.25
N-AMYL ACETATE,CCCCCOC(C)=O,149.2,422.35
"3,4-DICHLOROBENZYL ALCOHOL",OCc1cc(Cl)c(Cl)cc1,149.5,422.65
"CYCLOPENTANOL, 2-METHYL-, TRANS-, CYCLOPENTANOL, 2-METHYL-, CIS-",C[C@@H]1CCC[C@H]1O,149.5,422.65
ETHYLENE GLYCOL MONOPROPYL ETHER,CCCOCCO,149.8,422.95
"Acetic acid, chloro-, 1,1-dimethylethyl ester",CC(C)(C)OC(=O)CCl,150,423.15
7-AZABICYCLO[4.1.0]HEPTANE,C1CCCC2NC21,150,423.15
2-BROMOETHANOL,OCCBr,150,423.15
2-IODOPENTANE,CCCC(C)I,150,423.15
2-BROMOTHIOPHENE,Brc1ccc[s]1,150,423.15
M-BROMOFLUOROBENZENE,Fc1cc(Br)ccc1,150,423.15
1-PROPOXY-2-PROPANOL,CCCOCC(C)O,150,423.15
Tridecafluoro 1-decene,C=CC(F)(F)C(F)(F)C(F)(F)C(F)(F)C(F)(F)C(F)(F)C(F)(F)C(F)(F)F,150,423.15
"1-BUTENE, 1,2-DIBROMO-",CCC(Br)=CBr,150,423.15
"METHANE, DIBROMODICHLORO-",ClC(Cl)(Br)Br,150.2,423.35
"1-Propanol, 2-(dimethylamino)-",CC(CO)N(C)C,150.3,423.45
"2,2,4-TRIMETHYL-3-PENTANOL",CC(C)C(O)C(C)(C)C,150.5,423.65
"PYRIMIDINE, 2,4-DIMETHYL-",Cc1cc[n]c(C)[n]1,150.5,423.65
"CYCLOOCTA-1,5-DIENE",C1CC=CCCC=C1,150.8,423.95
N-NONANE,CCCCCCCCC,150.8,423.95
"2,2,5-TRIMETHYLHEPTANE",CCC(C)CCC(C)(C)C,150.8,423.95
1-HEXANETHIOL,CCCCCCS,151,424.15
5-METHYL-2-HEXANOL,CC(C)CCC(C)O,151,424.15
(3-Chloropropyl)-trimethyl silane,C[Si](C)(C)CCCCl,151,424.15
"Hepta-1,6-dien-4-ol",C=CCC(O)CC=C,151,424.15
"2,4,4-TRIMETHYLHEPTANE",CCCC(C)(C)CC(C)C,151,424.15
"Butane, 1-(2-methylpropoxy)-",CCCCOCC(C)C,151,424.15
1-Chloro-2-hydroxy-2-methylbutane,CCC(C)(O)CCl,151,424.15
3-HEPTENAL,CCCC=CCC=O,151,424.15
"1,8-Dichloro-hexadecafluorooctane",FC(F)(Cl)C(F)(F)C(F)(F)C(F)(F)C(F)(F)C(F)(F)C(F)(F)C(F)(F)Cl,151,424.15
"Propanoic acid, 2-chloro-, 1-methylethyl ester",CC(C)OC(=O)C(C)Cl,151.5,424.65
4-METHYL-1-PENTANOL,CC(C)CCCO,151.9,425.05
3-ISOTHIOCYANATO-1-PROPENE,C=CCN=C=S,152,425.15
"2,2,2-TRICHLOROETHANOL",OCC(Cl)(Cl)Cl,152,425.15
"BICYCLO[2.2.1]HEPTANE, 2,2-DIMETHYL-5-METHYLENE-",CC1(C)CC2CC1CC2=C,152,425.15
BENZYL CHLOROCARBONATE,O=C(Cl)OCc1ccccc1,152,425.15
"Acetic acid, 2-(dimethylamino)ethyl ester",CC(=O)OCCN(C)C,152,425.15
"Oxirane,  (1,1-dimethylethoxy)methyl -",CC(C)(C)OCC1CO1,152,425.15
"1,1,3-Trichloro-butane",CC(Cl)CC(Cl)Cl,152,425.15
"3,5-Dimethyl-3-hexanol",CCC(C)(O)CC(C)C,152,425.15
4-NONYNE,CCCC#CCCCC,152,425.15
1-Hepten-4-ol,CCC[C@@H](O)CC=C,152.1,425.25
CHLORO(TRIFLUOROMETHYL)BENZENE,FC(F)(F)c1ccccc1Cl,152.2,425.35
"CYCLOHEXANE, 1-ETHYL-1-METHYL-",CCC1(C)CCCCC1,152.2,425.35
CUMENE,CC(C)c1ccccc1,152.4,425.55
2-BUTANONE OXIME,CCC(C)=NO,152.5,425.65
Tricyclene,CC1(C)C2CC3C(C2)C13C,152.5,425.65
"Chlorosulfuric acid, ethyl ester",CCOS(=O)(=O)Cl,152.5,425.65
2-ETHYL PYRAZINE,CCc1c[n]cc[n]1,152.5,425.65
HEPTANAL,CCCCCCC=O,152.8,425.95
"HEPTANE, 2,5,5-TRIMETHYL-",CCC(C)(C)CCC(C)C,152.8,425.95
"Piperazine, 2-methyl-",CC1CNCCN1,153,426.15
Hexanoyl chloride,CCCCCC(=O)Cl,153,426.15
TRIFLUOROACETOPHENONE,O=C(c1ccccc1)C(F)(F)F,153,426.15
Ethyl Phosphorochloridite,CCOP(Cl)OCC,153,426.15
1-NITROBUTANE,CCCC[N+]([O-])=O,153,426.15
"PROPANE, 1-ISOTHIOCYANATO-",CCCN=C=S,153,426.15
"2,3,4,5,6-PENTAFLUOROANILINE",Nc1c(F)c(F)c(F)c(F)c1F,153,426.15
"PYRIMIDINE, 5-METHYL-",Cc1c[n]c[n]c1,153,426.15
"THIOPHENE, 2-(1-METHYLETHYL)-",CC(C)c1ccc[s]1,153,426.15
"2H-THIOPYRAN, TETRAHYDRO-2-METHYL-",CC1CCCCS1,153,426.15
2-Bromo-2-nitro-propane,CC(C)(Br)[N+]([O-])=O,153,426.15
"PROPANE, 1,1,2,2-TETRACHLORO-",CC(Cl)(Cl)C(Cl)Cl,153,426.15
2-Chloro-5-trifluoromethylpyridine,FC(F)(F)c1ccc(Cl)[n]c1,153,426.15
"2,3,3,5-TETRAMETHYLHEXANE",CC(C)C(C)(C)CC(C)C,153.1,426.25
"2-Butenoic acid, 3-methyl-, ethyl ester",CC(C)=CC(=O)OCC,153.5,426.65
"Propanenitrile, 3-ethoxy-, 3-Ethoxy-propionitrile",CCOCCC#N,153.5,426.65
2-CHLOROPYRAZINE,Clc1c[n]cc[n]1,153.5,426.65
"2,6-OCTADIENE, 4,5-DIMETHYL-",CC(C=CC)C(C)C=CC,153.5,426.65
ANISOLE,COc1ccccc1,153.7,426.85
METHYL TRICHLOROACETATE,COC(=O)C(Cl)(Cl)Cl,153.8,426.95
"2,2,4,4-TETRAMETHYLHEXANE",CC(C)(C)CC(C)(C)CC,153.8,426.95
"CYCLOHEXANE, 1-ETHYL-2-METHYL-, CIS-, CYCLOHEXANE, 1-ETHYL-2-METHYL-, TRANS-",C[C@@H]1CCCC[C@@H]1CC,153.85,427
N-NITROSODIMETHYLAMINE,CN(C)N=O,154,427.15
ETHYL LACTATE,CCOC(=O)C(C)O,154,427.15
"Oxirane,  (2-propenyloxy)methyl -",C=CCOCC1CO1,154,427.15
"Butanal, oxime",CCCC=NO,154,427.15
"Benzene, 1-chloro-3-fluoro-2-methyl-",Cc1c(F)cccc1Cl,154,427.15
4-Ethylpiperidine,CCC1CCNCC1,154,427.15
Pent-4-yn-1-ol,C#CCCCO,154,427.15
3-Pentyn-1-ol,CC#CCCO,154,427.15
"4-HEPTANONE, 3-METHYL-",CCC(C)C(=O)CCC,154,427.15
"4-HEXEN-2-ONE, 3,4-DIMETHYL-",CC(=CC)C(C)C(C)=O,154,427.15
DIETHYL DISULFIDE,CCSSCC,154.1,427.25
"3-ETHYL-2,5-DIMETHYLHEXANE",CCC(CC(C)C)C(C)C,154.1,427.25
ISOBUTYRIC ACID,CC(C)C(O)=O,154.4,427.55
2-FLUOROANISOLE,COc1ccccc1F,154.5,427.65
Benzoyl fluoride,O=C(F)c1ccccc1,154.5,427.65
N-Butylpyrrolidine,CCCCN1CCCC1,154.5,427.65
"2-HEXANOL, 2,5-DIMETHYL-, (S)-",CC(C)CCC(C)(C)O,154.5,427.65
TETRAETHYLSILANE,CC[Si](CC)(CC)CC,154.7,427.85
"METHACRYLIC ACID, I-BUTYL ESTER",CC(=C)C(=O)OCC(C)C,155,428.15
"Isobutyric acid, butyl ester (6CI,7CI,8CI)",CCCCOC(=O)C(C)C,155,428.15
"2,5-DIMETHYLPYRAZINE",Cc1c[n]c(C)c[n]1,155,428.15
"Octodrine, 1,5-Dimethyl-hexylamine",CC(C)CCCC(C)N,155,428.15
"Propanoic acid, 2-oxo-, ethyl ester",CC(=O)C(=O)OCC,155,428.15
"4-Heptanone, 2-methyl-",CCCC(=O)CC(C)C,155,428.15
CHLOROETHYL CHLOROFORMATE,O=C(Cl)OCCCl,155,428.15
1-IODOPENTANE,CCCCCI,155,428.15
"2,3,4-Trichloro-1-butene",C=C(Cl)C(Cl)CCl,155,428.15
1-Bromo-3-chloro-2-methyl-propane,CC(CCl)CBr,155,428.15
"2,2-DIMETHYLOCTANE",CCCCCCC(C)(C)C,155,428.15
1-BROMOHEXANE,CCCCCCBr,155.3,428.45
CYCLOHEXANONE,O=C1CCCCC1,155.4,428.55
TRIALLYLAMINE,C=CCN(CC=C)CC=C,155.5,428.65
"Formic acid, hexyl ester",CCCCCCOC=O,155.5,428.65
"BENZENE, (ETHENYLOXY)-",C=COc1ccccc1,155.5,428.65
"PYRAZINE, 2,6-DIMETHYL-",Cc1c[n]cc(C)[n]1,155.6,428.75
PROPYL ISOVALERATE,CCCOC(=O)CC(C)C,155.9,429.05
TRIPROPYLAMINE,CCCN(CCC)CCC,156,429.15
3-CHLOROPROPIONIC ACID,OC(=O)CCCl,156,429.15
HEPTYLAMINE,CCCCCCCN,156,429.15
ALLYLBENZENE,C=CCc1ccccc1,156,429.15
2-METHYL-2-HEPTANOL,CCCCCC(C)(C)O,156,429.15
"PIPERIDINE, 2,2,6,6-TETRAMETHYL-",CC1(C)CCCC(C)(C)N1,156,429.15
"2,4-DIMETHYLOCTANE",CC(C)CC(C)CCCC,156,429.15
"3-HEXANOL, 2,2-DIMETHYL-",CCCC(O)C(C)(C)C,156,429.15
Chloro-triethoxy silane,CCO[Si](Cl)(OCC)OCC,156,429.15
"FURAZAN, DIMETHYL-",Cc1[n]o[n]c1C,156,429.15
"2-Butenoic acid, 2-methyl-, ethyl ester, (E)-",C/C(=C\C)/C(=O)OCC,156,429.15
"PYRAZINE, 2,3-DIMETHYL-",Cc1[n]cc[n]c1C,156,429.15
DIMETHYL DISELENIDE,C[Se][Se]C,156,429.15
"3-ETHYL-2,2-DIMETHYLHEXANE",CCC(CCC)C(C)(C)C,156.1,429.25
"ALPHA-PINENE, DL-PIN-2(3)-ENE, Bicyclo 3.1.1 hept-2-ene, 2,6,6-trimethyl-, (1S), (+)-alpha-Pinene",CC1=CCC2CC1C2(C)C,156.15,429.3
"2,3,4,5-TETRAMETHYLHEXANE",CC(C)C(C)C(C)C(C)C,156.2,429.35
ETHOXYETHYLACETATE,CCOCCOC(C)=O,156.4,429.55
4-METHYLPENTANITRILE,CC(C)CCC#N,156.5,429.65
2-CHLOROETHYL ETHYL SULFIDE,CCSCCCl,156.5,429.65
"3-PENTANOL, 2,3,4-TRIMETHYL-",CC(O)(C(C)C)C(C)C,156.5,429.65
"2,4,5-TRIMETHYLHEPTANE",CC(C)CC(C)C(C)CC,156.5,429.65
"CYCLOPENTANE, BUTYL-",CCCCC1CCCC1,156.6,429.75
N-PROPYLCYCLOHEXANE,CCCC1CCCCC1,156.7,429.85
"1,2,3-TRICHLOROPROPANE",ClC(CCl)CCl,157,430.15
"2,5-DIMETHYLPYRIDINE",Cc1c[n]c(C)cc1,157,430.15
"ACETIC ACID, MERCAPTO-, ETHYL ESTER",CCOC(=O)CS,157,430.15
"Propane, 1,1,1,3-tetrachloro-",ClCCC(Cl)(Cl)Cl,157,430.15
"THIOPHENE, 2-ETHYLTETRAHYDRO-",CCC1CCCS1,157,430.15
3-METHOXY-1-BUTANOL,COC(C)CCO,157,430.15
"1,1,3-Trimethoxy-butane",CC(CC(OC)OC)OC,157,430.15
"2,2,3,4-TETRAMETHYLHEXANE",CCC(C)C(C)C(C)(C)C,157,430.15
"2,4-DIMETHYL-3-ISOPROPYLPENTANE",CC(C)C(C(C)C)C(C)C,157.1,430.25
3-NONYNE,CCC#CCCCCC,157.1,430.25
GLYCEROL-BETA-NITRATE,[O-][N+](=O)OC(CO)CO,157.5,430.65
"2-Cyclopenten-1-one, 3-methyl-",CC1CCC(=O)C=1,157.5,430.65
"HEPTANE, 4-PROPYL-",CCCC(CCC)CCC,157.5,430.65
"4,4-Dimethyloctane",CC(C)(CCC)CCCC,157.5,430.65
"Cyclopentanol, 1-ethynyl-",C#CC1(O)CCCC1,157.5,430.65
Allyl-cyclohexane,C#CCC1CCCCC1,157.5,430.65
"3-HEXANOL, 2,5-DIMETHYL-",CC(C)C(O)CC(C)C,157.5,430.65
"1,3-Dimethyl-5-chloropyrazole",Cc1cc(Cl)[n](C)[n]1,157.5,430.65
1-HEXANOL,CCCCCCO,157.6,430.75
"Phosphorous acid, triethyl ester",CCOP(OCC)OCC,157.9,431.05
"Ethanol, 2-mercapto-",OCCS,158,431.15
2-(METHYLAMINO)ETHANOL,CNCCO,158,431.15
"Octanoic acid, pentadecafluoro-, methyl ester",COC(=O)C(F)(F)C(F)(F)C(F)(F)C(F)(F)C(F)(F)C(F)(F)C(F)(F)F,158,431.15
"Sulfurous acid, diethyl ester",CCOS(=O)OCC,158,431.15
"2,3,5,6-TETRAFLUOROANILINE",Nc1c(F)c(F)cc(F)c1F,158,431.15
"2-Propenoyl chloride, 2,3,3-trichloro-",O=C(Cl)C(Cl)=C(Cl)Cl,158,431.15
"1,2-Dimethyl-2-ethylvinyl methyl ketone",CCC(C)=C(C)C(C)=O,158,431.15
"THIAZOLE, 4,5-DIMETHYL-",Cc1[s]c[n]c1C,158,431.15
"Cyclopentanone, 2,2,4-trimethyl-",CC1CC(=O)C(C)(C)C1,158,431.15
"HEPTANE, 3-ETHYL-5-METHYL-",CC(CC(CC)CC)CC,158.2,431.35
Ethyl triethoxysilane,CC[Si](OCC)(OCC)OCC,158.5,431.65
"2,4-DIMETHYLPYRIDINE",Cc1cc(C)[n]cc1,158.5,431.65
"1,4-BUTANEDIAMINE",NCCCCN,158.5,431.65
"ETHANOL, 2-(2-PROPENYLOXY)-",C=CCOCCO,158.5,431.65
Pentafluorobenzoyl chloride,O=C(Cl)c1c(F)c(F)c(F)c(F)c1F,158.5,431.65
"ETHANONE, 1-CYCLOPENTYL-",CC(=O)C1CCCC1,158.5,431.65
"OCTANE, 2,5-DIMETHYL-",CC(C)CCC(C)CCC,158.5,431.65
"2H-THIOPYRAN, TETRAHYDRO-4-METHYL-",CC1CCSCC1,158.6,431.75
"5,5,5-TRIFLUORO-3-METHYL-1-PENTANOL",CC(CCO)CC(F)(F)F,158.7,431.85
CYCLOHEXANETHIOL,SC1CCCCC1,158.9,432.05
4-ISOPROPYLHEPTANE,CC(C)C(CCC)CCC,158.9,432.05
2-CHLOROTOLUENE,Cc1ccccc1Cl,159,432.15
M-FLUOROANISOLE,COc1cccc(F)c1,159,432.15
ETHYL AMYLKETONE,CC(CC(=O)CC)CC,159,432.15
2-HEPTANOL,CCCCCC(C)O,159,432.15
1-Bromoperfluorononane,FC(F)(F)C(F)(F)C(F)(F)C(F)(F)C(F)(F)C(F)(F)C(F)(F)C(F)(F)C(F)(F)Br,159,432.15
FUMARYL CHLORIDE,O=C(Cl)/C=C/C(=O)Cl,159,432.15
1-CHLOROHEPTANE,CCCCCCCCl,159,432.15
"4-Hexen-1-ol, (E)-",C/C=C/CCCO,159,432.15
Tripropyl-borane,CCCB(CCC)CCC,159,432.15
"4,6-DIMETHYLPYRIMIDINE",Cc1cc(C)[n]c[n]1,159,432.15
Cyclobutanecarboxylic acid ethyl ester,CCOC(=O)C1CCC1,159,432.15
"1,7-Dibromotetradecafluoroheptane",FC(F)(Br)C(F)(F)C(F)(F)C(F)(F)C(F)(F)C(F)(F)C(F)(F)Br,159,432.15
N-PROPYLBENZENE,CCCc1ccccc1,159.2,432.35
CYCLOHEXANECARBOXALDEHYDE,O=CC1CCCCC1,159.3,432.45
"CAMPHENE, (+)-Camphene",CC1(C)C2CC(CC2)C1=C,159.5,432.65
2-VINYLPYRIDINE,C=Cc1cccc[n]1,159.5,432.65
Pentafluoronitrobenzene,[O-][N+](=O)c1c(F)c(F)c(F)c(F)c1F,159.5,432.65
DIBUTYLAMINE,CCCCNCCCC,159.6,432.75
PENTACHLOROETHANE,ClC(Cl)C(Cl)(Cl)Cl,159.8,432.95
"OCTANE, 2,7-DIMETHYL-",CC(C)CCCCC(C)C,159.9,433.05
1-AMINO-2-PROPANOL,CC(O)CN,160,433.15
"METHACRYLIC ACID, N-BUTYL ESTER",CC(=C)C(=O)OCCCC,160,433.15
"Cyclohexanamine, N,N-dimethyl-",CN(C)C1CCCCC1,160,433.15
"Benzene, 1-bromo-4-(trifluoromethyl)-",FC(F)(F)c1ccc(Br)cc1,160,433.15
"PINANE, 2,6,6-Trimethyl-bicyclo[3.1.1]heptane",CC1CCC2CC1C2(C)C,160,433.15
Ethyl a-Bromopropionate,CCOC(=O)[C@@H](C)Br,160,433.15
"PROPANE, 1-ISOTHIOCYANATO-2-METHYL-",CC(C)CN=C=S,160,433.15
3-Ethyl-3-hexanol,CCCC(O)(CC)CC,160,433.15
"2-PROPANOL,2-PHHENYL-1,1,1,3,3,3-HEXAFLUORO",OC(c1ccccc1)(C(F)(F)F)C(F)(F)F,160,433.15
"2,4-Hexanedione",CC(=O)CC(=O)CC,160,433.15
"ETHANOL, 2-(2-METHYLPROPOXY)-",CC(C)COCCO,160,433.15
2-Propyl-pentanal,CCCC(CCC)C=O,160,433.15
"2-HEXANOL, 2,3-DIMETHYL-",CCCC(C)C(C)(C)O,160,433.15
"1-Butanol, 3-methyl-, propanoate",CCC(=O)OCCC(C)C,160.2,433.35
"2,3,3-TRIMETHYLHEPTANE",CCCCC(C)(C)C(C)C,160.2,433.35
"2,2,3,3-TETRAMETHYLHEXANE",CC(C)(C)C(C)(C)CCC,160.3,433.45
"2,6-DIMETHYLOCTANE",CC(C)CCCC(C)CC,160.4,433.55
PHENYLPHOSPHINE,Pc1ccccc1,160.5,433.65
"PYRIDINE, 2-ETHYL-6-METHYL-",Cc1cccc(CC)[n]1,160.5,433.65
"Cyclopentanone, 2,4,4-trimethyl-",CC1CC(C)(C)CC1=O,160.5,433.65
"HEPTANE, 2,3,5-TRIMETHYL-",CC(C)C(C)CC(C)CC,160.7,433.85
CYCLOHEXANOL,OC1CCCCC1,160.8,433.95
"OCTANE, 3,6-DIMETHYL-",CC(CCC(C)CC)CC,160.8,433.95
4-ETHYL-4-METHYLHEPTANE,CCC(C)(CCC)CCC,160.8,433.95
"1,4-DICHLOROBUTANE",ClCCCCCl,161,434.15
Pentadecafluoro-1-octanol,OCC(F)(F)C(F)(F)C(F)(F)C(F)(F)C(F)(F)C(F)(F)C(F)(F)F,161,434.15
"Furan, 2,5-dihydro-2,5-dimethoxy-",CO[C@H]1C=C[C@@H](O1)OC,161,434.15
"BICYCLO[2.2.1]HEPTANE, 1,7,7-TRIMETHYL-",CC1(C)C2CCC1(C)CC2,161,434.15
3-Thiocyanato-propene,C=CCSC#N,161,434.15
"METHANONE, DICYCLOPROPYL-",O=C(C1CC1)C1CC1,161,434.15
Chloro-acetic acid propyl ester,CCCOC(=O)CCl,161,434.15
"2,3-DIBROMOBUTANE",CC(Br)C(C)Br,161,434.15
"2,3,4-TRIMETHYLHEPTANE",CC(C)C(C)C(C)CCC,161,434.15
"3-NONENE, 2-METHYL-",CCCCCC=CC(C)C,161,434.15
"4-ETHYL-2,4-DIMETHYLHEXANE",CC(C)CC(C)(CC)CC,161.1,434.25
"2,3-DIMETHYLPYRIDINE",Cc1ccc[n]c1C,161.2,434.35
"OCTANE, 3,3-DIMETHYL-",CCCCCC(C)(C)CC,161.2,434.35
M-ETHYLTOLUENE,Cc1cccc(CC)c1,161.3,434.45
3-Methyl-butyraldehyde oxime,CC(C)CC=NO,161.3,434.45
"2,3,4,4-TETRAMETHYLHEXANE",CC(C)C(C)C(C)(C)CC,161.6,434.75
FUFURAL,O=Cc1ccco1,161.7,434.85
M-CHLOROTOLUENE,Cc1cc(Cl)ccc1,161.8,434.95
2-NONYNE,CC#CCCCCCC,161.9,435.05
"HEPTANE, 3,3,4-TRIMETHYL-",CCC(C)(C)C(C)CCC,161.9,435.05
BETA-PROPIOLACTONE,O=C1CCO1,162,435.15
2-METHOXYETHYLETHER,COCCOCCOC,162,435.15
METHYLSULFONYL CHLORIDE,CS(=O)(=O)Cl,162,435.15
P-ETHYLTOLUENE,Cc1ccc(CC)cc1,162,435.15
"Propanoic acid, 3-chloro-, ethyl ester",CCOC(=O)CCCl,162,435.15
"3-ETHYL-2,4-DIMETHYLHEXANE",CC(C)C(CC)C(C)CC,162,435.15
4-Oxo-butyric acid ethyl ester,CCOC(=O)CCC=O,162,435.15
"1-PROPENE, 1,2,3,3-TETRACHLORO-",ClC=C(Cl)C(Cl)Cl,162,435.15
"BICYCLO[2.2.1]HEPTANE, 2-CHLORO-",ClC1CC2CC1CC2,162,435.15
"4-ETHYL-2,3-DIMETHYLHEXANE",CC(C)C(C)C(CC)CC,162,435.15
"3-ETHYL-3,4-DIMETHYLHEXANE",CC(CC)C(C)(CC)CC,162.1,435.25
"OCTANE, 4,5-DIMETHYL-",CC(CCC)C(C)CCC,162.15,435.3
TRIFLUOROACETAMIDE,NC(=O)C(F)(F)F,162.5,435.65
2-METHYLCYCLOHEXANONE,CC1CCCCC1=O,162.5,435.65
"ETHANOL, 2-BROMO-, ACETATE",CC(=O)OCCBr,162.5,435.65
"1,2,3-Trichloro-2-methyl-propane",CC(Cl)(CCl)CCl,162.5,435.65
"SILANE, CHLOROPHENYL-",Cl[SiH2]c1ccccc1,162.5,435.65
"2-Furanmethanol, .alpha.-methyl-",CC(O)c1ccco1,162.5,435.65
"1-Butanol, 2-ethyl-, acetate",CC(=O)OCC(CC)CC,162.5,435.65
"Heptane, 3,4,5-trimethyl-",CC(C(C)CC)C(C)CC,162.5,435.65
"Heptanethiol, methyl-",CCCCCCCSC,162.5,435.65
METHYLPHOSPHINIC ACID,CP(O)=O,162.6,435.75
"2,5-DIMETHYLPIPERAZINE, trans-2,5-Dimethylpiperazine, PIPERAZINE, 2,5-DIMETHYL-, CIS-",CC1CNC(C)CN1,162.67,435.8166667
"1,3,5-Triazine, hexahydro-1,3,5-trimethyl-",CN1CN(C)CN(C)C1,162.75,435.9
"1,1,1-Trichloro-2-propanol",CC(O)C(Cl)(Cl)Cl,163,436.15
METHACRYLIC ACID,CC(=C)C(O)=O,163,436.15
2-(DIETHYLAMINO)-ETHANOL,CCN(CCO)CC,163,436.15
PHENYL ISOCYANATE,O=C=Nc1ccccc1,163,436.15
"Propanenitrile, 3-methoxy-",COCCC#N,163,436.15
2-ETHYLHEXANAL,CCCCC(CC)C=O,163,436.15
1-bromo-2-iodoethane,BrCCI,163,436.15
ETHYL ALPHA-BROMOISOBUTYRATE,CCOC(=O)C(C)(C)Br,163,436.15
"Ethanamine, 2,2-diethoxy-",CCOC(CN)OCC,163,436.15
Methyl phosphonic dichloride,CP(=O)(Cl)Cl,163,436.15
3-Hexyn-1-ol,CCC#CCCO,163,436.15
CYCLOPENTANEMETHANOL,OCC1CCCC1,163,436.15
"2-OCTENE, 2,6-DIMETHYL-",CCC(C)CCC=C(C)C,163,436.15
But-2-ynoic acid ethyl ester,CC#CC(=O)OCC,163,436.15
3-Methyl-3-heptanol,CCCCC(C)(O)CC,163,436.15
"1-Pentanol, 2-methyl-, acetate",CCCC(C)COC(C)=O,163,436.15
"HEPTANE, 3-ETHYL-2-METHYL-",CC(C)C(CCCC)CC,163,436.15
"Propanoyl bromide, 2-bromo-2-methyl-",CC(C)(Br)C(=O)Br,163,436.15
"Pentanoic acid, 4-methyl-, ethyl ester",CCOC(=O)CCC(C)C,163,436.15
"OCTANE, 3,4-DIMETHYL-",CC(CCCC)C(C)CC,163.4,436.55
METHYL OXALATE,COC(=O)C(=O)OC,163.5,436.65
DIMETHYL CYANAMIDE,CN(C)C#N,163.5,436.65
"2,3,5,6-Tetrafluoro-4-(trifluoromethyl)phenol",Oc1c(F)c(F)c(c(F)c1F)C(F)(F)F,163.5,436.65
Dichloro-acetic acid isopropyl ester,CC(C)OC(=O)C(Cl)Cl,163.5,436.65
HEXANENITRILE,CCCCCC#N,163.6,436.75
BUTYRIC ACID,CCCC(O)=O,163.7,436.85
"2,2-Dimethyl propanoic acid",CC(C)(C)C(O)=O,164,437.15