NAME,SMILES,BP_C,BP_K
ETHANE,CC,-88.6,184.55
"1,1-DIFLUOROETHENE",C=C(F)F,-85.7,187.45
TRIFLUOROMETHANE,FC(F)F,-82.1,191.05
CHLOROTRIFLUOROMETHANE,FC(F)(F)Cl,-81.4,191.75
CARBON DIOXIDE,O=C=O,-78.48,194.67
FLUOROMETHANE,CF,-78.4,194.75
HEXAFLUOROETHANE,FC(F)(F)C(F)(F)F,-78.1,195.05
VINYLFLUORIDE,C=CF,-72,201.15
"Acetonitrile, trifluoro-",N#CC(F)(F)F,-68.8,204.35
Tetrafluoroethylene oxide,FC1(F)OC1(F)F,-63.5,209.65
Trifluoroacetyl fluoride,O=C(F)C(F)(F)F,-59,214.15
KETENE,C=C=O,-49.8,223.35
"1,1,1,2,2-PENTAFLUOROETHANE",FC(F)C(F)(F)F,-48.5,224.65
"1,1,1-TRIFLUOROETHANE",CC(F)(F)F,-47.5,225.65
PROPANE,CCC,-42.1,231.05
CHLORODIFLUOROMETHANE,FC(F)Cl,-40.7,232.45
CHLOROPENTAFLUOROETHANE,FC(F)(F)C(F)(F)Cl,-37.9,235.25
FLUOROETHANE,CCF,-37.6,235.55
"1,2-PROPADIENE",C=C=C,-34.4,238.75
CYCLOPROPANE,C1CC1,-32.8,240.35
"ETHYNE, CHLORO-",C#CCl,-30,243.15
DICHLORODIFLUOROMETHANE,FC(F)(Cl)Cl,-29.8,243.35
HEXAFLUOROPROPENE,FC(F)=C(F)C(F)(F)F,-29.6,243.55
"Oxirane, trifluoro(trifluoromethyl)-",FC(F)(F)C1(F)OC1(F)F,-27.4,245.75
HEXAFLUORO-2-PROPANONE,O=C(C(F)(F)F)C(F)(F)F,-27.4,245.75
FORMYL FLUORIDE,O=CF,-26.5,246.65
"1,1,1,2-TETRAFLUOROETHANE",FCC(F)(F)F,-26,247.15
"1,1-DIFLUOROETHANE",CC(F)F,-24.9,248.25
DIMETHYL ETHER,COC,-24.8,248.35
METHYL CHLORIDE,CCl,-24,249.15
"1-PROPENE, 2-FLUORO-",CC(=C)F,-24,249.15
PROPYNE,CC#C,-23.2,249.95
Bromopentafluoroethane,FC(F)(F)C(F)(F)Br,-21,252.15
"SULFUR, PENTAFLUORO(TRIFLUOROMETHYL)-, (OC-6-21)",FC(F)(F)S(F)(F)(F)(F)F,-20,253.15
FORMALDEHYDE,C=O,-19.1,254.05
"CHLORO-1,1-DIFLUOROETHYLENE",FC(F)=CCl,-18.5,254.65
"1,1,1,2,2-PENTAFLUOROPROPANE",CC(F)(F)C(F)(F)F,-17.4,255.75
"3,3,3-TRIFLUORO-1-PROPENE",C=CC(F)(F)F,-17,256.15
METHYLNITRITE,CON=O,-12,261.15
"1-Chloro-1,2,2,2-Tetrafluoroethane",FC(Cl)C(F)(F)F,-12,261.15
2-METHYLPROPANE,CC(C)C,-11.7,261.45
"ETHANE, 1-CHLORO-1,1,2,2-TETRAFLUORO-",FC(F)C(F)(F)Cl,-10,263.15
2-Fluoropropane,CC(C)F,-10,263.15
CHLOROFLUOROMETHANE,FCCl,-9.1,264.05
ISOBUTENE,CC(C)=C,-6.9,266.25
METHYLAMINE,CN,-6.3,266.85
1-BUTENE,CCC=C,-6.2,266.95
PERFLUOROCYCLOBUTANE,FC1(F)C(F)(F)C(F)(F)C1(F)F,-5.9,267.25
"1,3-BUTADIENE",C=CC=C,-4.4,268.75
DECAFLUOROBUTANE,FC(F)(F)C(F)(F)C(F)(F)C(F)(F)F,-1.9,271.25
HFC-236fa (CF3CH2CF3),FC(F)(F)CC(F)(F)F,-1.1,272.05
"2-BROMO-1,1,2-TRIFLUOROETHYLENE",FC(F)=C(F)Br,-1,272.15
"PROPANE, 2,2-DIFLUORO-",CC(C)(F)F,-0.4,272.75
"1,1,1,2,3,3,3-Heptafluoro-2-trifluoroMe-propane",FC(C(F)(F)F)(C(F)(F)F)C(F)(F)F,0,273.15
Perfluoroisobutylene,FC(F)=C(C(F)(F)F)C(F)(F)F,0.5,273.65
METHYLCYCLOPROPANE,CC1CC1,0.7,273.85
OCTAFLUORO-2-BUTENE,FC(F)(F)C(F)=C(F)C(F)(F)F,1.5,274.65
"DIAZENE, DIMETHYL-",CN=NC,1.5,274.65
Methylarsine,C[AsH2],2,275.15
Cyclobutene,C1CC=C1,2,275.15
1-FLUOROPROPANE,CCCF,2.5,275.65
TRIMETHYLAMINE,CN(C)C,2.87,276.02
METHYL BROMIDE,CBr,3.5,276.65
DIMETHYLCHLOROBORANE,CB(C)Cl,4.9,278.05
"1,1,2-TRIFLUOROETHANE",FCC(F)F,5,278.15
METHYLVINYLETHER,COC=C,5.5,278.65
"CYCLOBUTENE, HEXAFLUORO-",FC1(F)C(F)=C(F)C1(F)F,5.5,278.65
METHANETHIOL,CS,5.9,279.05
"1,3-Butadiene, 1,1,2,3,4,4-hexafluoro-",FC(F)=C(F)C(F)=C(F)F,6,279.15
"1,1,1-TRIFLUORO-2-CHLOROETHANE",FC(F)(F)CCl,6.1,279.25
"1,2-PROPADIENE-1,3-DIONE",O=C=C=C=O,6.8,279.95
"1-PROPENE, 2-CHLORO-1,1,3,3,3-PENTAFLUORO-",FC(F)=C(Cl)C(F)(F)F,6.8,279.95
ETHYL METHYL ETHER,CCOC,7.4,280.55
CHLOROPENTAFLUOROACETONE,O=C(C(F)(F)Cl)C(F)(F)F,8,281.15
1-BUTYNE,CCC#C,8,281.15
PHOSGENE,O=C(Cl)Cl,8.2,281.35
"2-Bromo-1,1,1,2-tetrafluoroethane",FC(Br)C(F)(F)F,8.6,281.75
"2,2-DIMETHYLPROPANE",CC(C)(C)C,9.5,282.65
DIACETYLENE,C#CC#C,10.3,283.45
ETHYLENE OXIDE,C1CO1,10.6,283.75
"1,2-BUTADIENE",CC=C=C,10.9,284.05
CHLOROETHANE,CCCl,12.3,285.45
"PEROXIDE, DIMETHYL",COOC,14,287.15
HCFC 226,FC(F)(F)C(Cl)C(F)(F)F,14.1,287.25
"ETHANE, 1-CHLORO-1-FLUORO-",C[C@H](F)Cl,16.2,289.35
ETHYLAMINE,CCN,16.6,289.75
"1-chloro-1,2,2-trifluoroethane",FC(F)C(F)Cl,17,290.15
ETHYLNITRITE,CCON=O,18,291.15
"1,1-DICHLORO-2,2-DIFLUOROETHYLENE",FC(F)=C(Cl)Cl,19,292.15
"ETHYLENE, 1-BROMO-1,2-DIFLUORO-",FC=C(F)Br,19,292.15
ACETALDEHYDE,CC=O,20.1,293.25
"CYCLOPROPANE, 1,1-DIMETHYL-",CC1(C)CC1,20.6,293.75
Acetyl fluoride,CC(=O)F,20.8,293.95
"1,2-DICHLORO-1,2-DIFLUOROETHYLENE",FC(Cl)=C(F)Cl,21.1,294.25
"1,1,1-TRIFLUOROACETONE",CC(=O)C(F)(F)F,22,295.15
Desflurane,FC(F)OC(F)C(F)(F)F,23.5,296.65
TRICHLOROFLUOROMETHANE,FC(Cl)(Cl)Cl,23.7,296.85
DIBROMODIFLUOROMETHANE,FC(F)(Br)Br,25,298.15
Dimethoxyborane,COBOC,25.9,299.05
"1,1,1-Trifluoro-2-bromoethane",FC(F)(F)CBr,26,299.15
TETRAMETHYLSILANE,C[Si](C)(C)C,26.6,299.75
"1,1,1-TRIFLUORO-2,2-DICHLOROETHANE",FC(F)(F)C(Cl)Cl,27,300.15
"Propane, 1-chloro-1,2,2,3,3-pentafluoro-",FC(F)C(F)(F)C(F)Cl,28.1,301.25
DIVINYL ETHER,C=COC=C,28.3,301.45
"PENTANE, DODECAFLUORO-",FC(F)(F)C(F)(F)C(F)(F)C(F)(F)C(F)(F)F,29.2,302.35
"Difluoromethyl 2,2,2-trifluoroethyl ether",FC(F)OCC(F)(F)F,29.3,302.45
"1,1,1,3-Tetrafluoropropane",FCCC(F)(F)F,29.4,302.55
"Ethane, 1,2-dichloro-1,1,2-trifluoro-",FC(Cl)C(F)(F)Cl,29.5,302.65
1-PENTENE,CCCC=C,29.9,303.05
"ETHENE, TRIFLUOROIODO-",FC(F)=C(F)I,30,303.15
METHYL ISOPROPYL ETHER,COC(C)C,30.7,303.85
"1,2-DIFLUOROETHANE",FCCF,30.7,303.85
2-METHYL-1-BUTENE,CCC(C)=C,31.2,304.35
FURAN,c1ccco1,31.5,304.65
ISOPROPYLAMINE,CC(C)N,31.7,304.85
METHYLFORMATE,COC=O,31.7,304.85
"1-BUTEN-3-YNE, 2-METHYL-",CC(=C)C#C,32,305.15
"1,1-DICHLOROFLUOROETHANE",CC(F)(Cl)Cl,32,305.15
1-FLUOROBUTANE,CCCCF,32.5,305.65
"CYCLOPROPANE, 1,2-DIMETHYL-, CIS-, CYCLOPROPANE, 1,2-DIMETHYL-, TRANS-",CC1CC1C,32.6,305.75
"ACETONITRILE, DICHLOROFLUORO-",N#CC(F)(Cl)Cl,33,306.15
Dichloroacetylene,ClC#CCl,33,306.15
"2-METHYL-1,3-BUTADIENE",CC(=C)C=C,34,307.15
"2,2,2-Trifluoroethanethiol",FC(F)(F)CS,34.5,307.65
"DISULFIDE, BIS(TRIFLUOROMETHYL)",FC(F)(F)SSC(F)(F)F,34.6,307.75
PROPYLENE OXIDE,CC1CO1,35,308.15
ISOPROPENYL METHYL ETHER,COC(C)=C,35,308.15
ETHYL MERCAPTAN,CCS,35.1,308.25
"1-CHLOROPROPENE, 1-PROPENE, 1-CHLORO-, (Z)-, 1-PROPENE, 1-CHLORO-, (E)-",C/C=C/Cl,35.23,308.3833333
ETHYL VINYL ETHER,CCOC=C,35.5,308.65
2-CHLOROPROPANE,CC(C)Cl,35.7,308.85
"Cyclopropane, ethyl-",CCC1CC1,35.9,309.05
N-PENTANE,CCCCC,36,309.15
Ethylarsine,CC[As],36,309.15
"METHANE, BROMOCHLOROFLUORO-",FC(Cl)Br,36,309.15
METHYLCYCLOBUTANE,CC1CCC1,36.3,309.45
ETHYL DIMETHYLAMINE,CCN(C)C,36.5,309.65
"2-PENTENE, CIS-2-PENTENE, TRANS-2-PENTENE",CC=CCC,36.73,309.8833333
"PHOSPHINE, TRIMETHYL-",CP(C)C,37.5,310.65
"2,2,2-TRIFLUOROETHYLAMINE",NCC(F)(F)F,37.5,310.65
"1-BUTYNE, 3,3-DIMETHYL-",CC(C)(C)C#C,37.7,310.85
BROMOETHANE,CCBr,38.5,311.65
"Butanoyl chloride, heptafluoro-",O=C(Cl)C(F)(F)C(F)(F)C(F)(F)F,38.5,311.65
SPIROPENTANE,C1CC21CC2,39,312.15
"Disiloxane, 1,3-diethenyl-1,1,3,3-tetramethyl-",C[Si](C)(C=C)O[Si](C)(C)C=C,39,312.15
METHYLISOCYANATE,CN=C=O,39.5,312.65
DICHLOROMETHANE,ClCCl,40,313.15
HFC-365mfc,CC(F)(F)CC(F)(F)F,40,313.15
HFC-245fa,FC(F)CC(F)(F)F,40,313.15
"Propane, 1,1,1,2,3,3,3-heptafluoro-2-iodo-",FC(I)(C(F)(F)F)C(F)(F)F,40,313.15
"3-METHYL-1,2-BUTADIENE",CC(C)=C=C,40.83,313.98
DICHLOROMETHYLSILANE,C[SiH](Cl)Cl,41,314.15
CYCLOPENTADIENE,C1C=CC=C1,41,314.15
"Propane,1112233-hepta-F-3(1222-tetrafluoroEtO)",FC(F)(C(F)(F)OC(F)C(F)(F)F)C(F)(F)F,41,314.15
"3,3-DIMETHYL-1-BUTENE",CC(C)(C)C=C,41.2,314.35
"Propane, 1,1,1,2,2,3,3-heptafluoro-3-iodo-",FC(F)(F)C(F)(F)C(F)(F)I,41.2,314.35
"1,3-difluoropropane",FCCCF,41.6,314.75
DIMETHOXYMETHANE,COCOC,42,315.15
"1-PROPENE, 3-BROMO-3,3-DIFLUORO-",C=CC(F)(F)Br,42,315.15
"Cyclobutane, methylene-",C=C1CCC1,42.2,315.35
METHYL IODIDE,CI,42.5,315.65
FLUROXENE,C=COCC(F)(F)F,42.5,315.65
"1,3-PENTADIENE, 1,3-PENTADIENE (Z), 1,3-PENTADIENE (E)",CC=CC=C,42.7,315.85
"1-(DIFLUOROMETHOXY)-1,1,2-TRIFLUOROETHANE",FCC(F)(F)OC(F)F,43,316.15
Propanoyl fluoride,CCC(=O)F,44,317.15
CYCLOPENTENE,C1CCC=C1,44.2,317.35
"Cyclopropane, methoxy-",COC1CC1,44.7,317.85
"1,2-PENTADIENE",CCC=C=C,44.9,318.05
T-BUTYLAMINE,CC(C)(C)N,45,318.15
Perfluoro-tert-butyl alcohol,OC(C(F)(F)F)(C(F)(F)F)C(F)(F)F,45,318.15
3-CHLOROPROPYLENE,C=CCCl,45.1,318.25
BICYCLO(2.1.0)PENTANE,C1C2CCC21,45.5,318.65
CARBON DISULFIDE,S=C=S,46,319.15
"1,1,1-TRICHLORO-2,2,2-TRIFLUOROETHANE",FC(F)(F)C(Cl)(Cl)Cl,46.1,319.25
1-CHLOROPROPANE,CCCCl,46.5,319.65
"1,2-DICHLORO-1,2-DIFLUOROETHANE",FC(Cl)C(F)Cl,46.8,319.95
"1,2-DICHLORO-1,1-DIFLUOROETHANE",FC(F)(Cl)CCl,46.8,319.95
"1,2-DIBROMOTETRAFLUOROETHANE",FC(F)(Br)C(F)(F)Br,47.3,320.45
"1-PROPENE, 1,2-DICHLORO-1,3,3,3-TETRAFLUORO-",FC(Cl)=C(Cl)C(F)(F)F,47.3,320.45
TRIMETHYLENEOXIDE,C1CCO1,47.6,320.75
"1,1,2-TRICHLOROTRIFLUOROETHANE",FC(F)(Cl)C(F)(Cl)Cl,47.7,320.85
"2,3-PENTADIENE",CC=C=CC,48.2,321.35
"1-Propene, 2-bromo-",CC(=C)Br,48.4,321.55
"3-PENTEN-1-YNE, (Z)-, 3-PENTEN-1-YNE, (E)-",C/C=C\C#C,48.4,321.55
PROPYLAMINE,CCCN,48.5,321.65
"2,2,3,3,3-Pentafluoropropylamine",NCC(F)(F)C(F)(F)F,49,322.15
CYCLOPENTANE,C1CCCC1,49.3,322.45
O-METHYLHYDROXYLAMINE,CON,49.5,322.65
"2,2-DIMETHYLBUTANE",CCC(C)(C)C,49.7,322.85
Ethoxy-ethyne,CCOC#C,50,323.15
HALOTHANE,FC(F)(F)C(Cl)Br,50.2,323.35
GLYOXAL,O=CC=O,50.4,323.55
"T-BUTYL CHLORIDE, 2-CHLORO-2-METHYLPROPANE",CC(C)(C)Cl,50.45,323.6
CYCLOPROPANAMINE,NC1CC1,50.5,323.65
PERFLUOROCYCLOHEXANE,FC1(F)C(F)(F)C(F)(F)C(F)(F)C(F)(F)C1(F)F,50.6,323.75
ACETYLCHLORIDE,CC(=O)Cl,50.7,323.85
Perfluoro-4-methylmorpholine,FC(F)(F)N1C(F)(F)C(F)(F)OC(F)(F)C1(F)F,51,324.15
"3,3-Dichloro-1,1,1,2,2-pentafluoropropane",FC(F)(F)C(F)(F)C(Cl)Cl,51.1,324.25
"METHANE, BROMODICHLOROFLUORO-",FC(Cl)(Cl)Br,52,325.15
"2,2-DIMETHYLOXIRANE",CC1(C)CO1,52,325.15
Trimethylarsine,C[As](C)C,52,325.15
2-PROPANETHIOL,CC(C)S,52.5,325.65
"Ethane, 1-bromo-2-chloro-1,1,2-trifluoro-",FC(Cl)C(F)(F)Br,52.5,325.65
1-Chloro-2-fluoroethane,FCCCl,53.1,326.25
Fluoroiodomethane,FCI,53.4,326.55
"1,1,2,2-Tetrafluoro-1-fluoromethoxyethane",FCOC(F)(F)C(F)F,53.6,326.75
"PROPENE, 1,2-DICHLORO-3,3,3-TRIFLUORO-",FC(F)(F)C(Cl)=CCl,53.7,326.85
"CYCLOPROPANE, 1,1,2-TRIMETHYL-",CC1CC1(C)C,54,327.15
ETHYL ISOPROPYL ETHER,CCOC(C)C,54.1,327.25
"1,2-DICHLOROETHENE (CIS), 1,2-DICHLOROETHENE (TRANS)",Cl/C=C\Cl,54.4,327.55
"1,1,1-trifluoro-2-iodoethane",FC(F)(F)CI,54.5,327.65
"2,5-Furandione, 3,3,4,4-tetrafluorodihydro-",O=C1OC(=O)C(F)(F)C1(F)F,54.5,327.65
"ACETIC ACID,TRIFLUORO, 2,2,2TRIFLUOROETHYL ESTER",O=C(OCC(F)(F)F)C(F)(F)F,55,328.15
"PROPANE, 1-CHLORO-2,2-DIFLUORO-",CC(F)(F)CCl,55,328.15
"1,2-DICHLOROETHYLENE",ClC=CCl,55,328.15
Dimethyl selenide,C[Se]C,55,328.15
ETHYLENE SULFIDE,C1CS1,55.5,328.65
"Propane, 2-(ethenyloxy)-",CC(C)OC=C,55.5,328.65
"2,3-DIMETHYL-1-BUTENE",CC(C)C(C)=C,55.6,328.75
AZIRIDINE,C1CN1,56,329.15
"Ethene, iodo-",C=CI,56,329.15
"1,3-DICHLORO-1,2,2,3,3-PENTAFLUOROPROPANE",FC(F)(Cl)C(F)(F)C(F)Cl,56.1,329.25
2-PENTYNE,CC#CCC,56.1,329.25
CF3-CH2-O-CF2-CF2H,FC(F)(F)COC(F)(F)C(F)F,56.2,329.35
ETHRANE [HALOETHER],FC(F)OC(F)(F)C(F)Cl,56.5,329.65
PERFLUORO-N-HEXANE,FC(F)(F)C(F)(F)C(F)(F)C(F)(F)C(F)(F)C(F)(F)F,56.6,329.75
METHYL ACETATE,COC(C)=O,56.8,329.95
"CYCLOPROPANE, 1-ETHYL-1-METHYL-",CCC1(C)CC1,56.8,329.95
"Silane, diethyl-",CC[SiH2]CC,57,330.15
Dodecafluoro-hex-1-ene,FC(F)(F)C(F)(F)C(F)(F)C(F)(F)C(F)=C(F)F,57,330.15
"2-Bromo-1,1-difluoroethane",FC(F)CBr,57.3,330.45
"1,1-DICHLOROETHANE",CC(Cl)Cl,57.4,330.55
"ETHYL 1,1,2,2-TETRAFLUOROETHYL ETHER",CCOC(F)(F)C(F)F,57.5,330.65
"2,3-DIMETHYLBUTANE",CC(C)C(C)C,57.9,331.05
"1-Propyne, 3-chloro-",C#CCCl,58,331.15
"OXIRANE, 2,3-DIMETHYL-, CIS-, OXIRANE, 2,3-DIMETHYL-, TRANS-",CC1OC1C,58.25,331.4
ISOPROPYLCYCLOPROPANE,CC(C)C1CC1,58.3,331.45
"ETHANE, 1,1,2,2-TETRAFLUORO-1,2-DINITRO-",[O-][N+](=O)C(F)(F)C(F)(F)[N+]([O-])=O,58.5,331.65
Sevoflurane,FCOC(C(F)(F)F)C(F)(F)F,58.5,331.65
"TRANS-4-METHYL-2-PENTENE, 4-METHYL-2-PENTENE",CC=CC(C)C,58.8,331.95
CHLOROPRENE,C=CC(=C)Cl,59.4,332.55
"1,5-HEXADIENE",C=CCCC=C,59.4,332.55
CHLOROMETHOXYMETHANE,COCCl,59.5,332.65
"1,2-Dichloro-1,2,3,3,4,4-hexafluorocyclobutane",FC1(F)C(F)(Cl)C(F)(Cl)C1(F)F,59.5,332.65
"Propanoic acid, pentafluoro-, methyl ester",COC(=O)C(F)(F)C(F)(F)F,59.5,332.65
METHYL ISOCYANIDE,[C-]#[N+]C,59.6,332.75
CHLOROTRIMETHYLSILANE,C[Si](C)(C)Cl,60,333.15
"Ethane, isocyanato-",CCN=C=O,60,333.15
2-Propynal,C#CC=O,60,333.15
2-METHYLPENTANE,CCCC(C)C,60.2,333.35
Difluorodiethyl silane,CC[Si](F)(F)CC,61,334.15
TRIFLUOROETHYL ACETATE,CCOC(=O)C(F)(F)F,61,334.15
CHLOROFORM,ClC(Cl)Cl,61.1,334.25
"1-PENTYNE, 4-METHYL-",CC(C)CC#C,61.2,334.35
Undecafluorocyclohexane,FC1C(F)(F)C(F)(F)C(F)(F)C(F)(F)C1(F)F,62,335.15
N-METHYLPROPYLAMINE,CCCNC,62,335.15
2-METHYL-1-PENTENE,CCCC(C)=C,62.1,335.25
SEC-BUTYLAMINE,CCC(C)N,62.75,335.9
1-FLUOROPENTANE,CCCCCF,62.8,335.95
"BUTANE, 2,3-DICHLORO-1,1,1,2,3,4,4,4-OCTAFLUORO-",FC(F)(F)C(F)(Cl)C(F)(Cl)C(F)(F)F,63,336.15
AZETIDINE,C1CCN1,63,336.15
2-METHYL-2-PROPYLNITRIT,CC(C)(C)ON=O,63,336.15
3-Methoxy-propyne,COCC#C,63,336.15
ETHYL PROPYL ETHER,CCOCCC,63.2,336.35
"1,2-BUTYLENEOXIDE",CCC1CO1,63.3,336.45
Ethanedioyl dichloride,O=C(Cl)C(=O)Cl,63.5,336.65
"3-BROMO-1,1,1-TRIFLUOROPROPANE",FC(F)(F)CCBr,63.5,336.65
"1,1-DIMETHYLHYDRAZINE",CN(C)N,63.9,337.05
2-METHYL-2-PROPANETHIOL,CC(C)(C)S,64,337.15
"CYCLOBUTANE, 1,2-BIS(METHYLENE)-",C=C1CCC1=C,64,337.15
ISOBUTYRALDEHYDE,CC(C)C=O,64.5,337.65
"1,1-DIMETHOXYETHANE",CC(OC)OC,64.5,337.65
3-CHLORO-1-BUTENE,CC(Cl)C=C,64.5,337.65
"2-Butene, 2-chloro-",CC=C(C)Cl,64.5,337.65
METHANOL,CO,64.7,337.85
2-ETHYL-1-BUTENE,CCC(=C)CC,64.7,337.85
"CYCLOPENTENE, 3-METHYL-",CC1CCC=C1,64.9,338.05
"METHANE, DIBROMOFLUORO-",FC(Br)Br,64.9,338.05
TETRAHYDROFURAN,C1CCCO1,65,338.15
2-METHYLFURAN,Cc1ccco1,65,338.15
"1,4-Hexadiene, TRANS-1,4-HEXADIENE",C/C=C/CC=C,65,338.15
N-METHYLALLYLAMINE,CNCC=C,65,338.15
"Propane, 1-(ethenyloxy)-",CCCOC=C,65,338.15
ALLYL MERCAPTAN,C=CCS,65,338.15
SEC-BUTYL METHYL ETHER,CCC(C)OC,65,338.15
"Ethanamine, N-ethyl-N-methyl-",CN(CC)CC,66,339.15
Dimethyl propylamine,CCCN(C)C,66,339.15
3-METHYLFURAN,Cc1cocc1,66,339.15
"2-HEXENE, HEXENE - Mixture of isomers",C/C=C/CCC,66.5,339.65
"3-Penten-1-yne, 3-methyl-",CC=C(C)C#C,66.5,339.65
ETHYL METHYL SULFIDE,CCSC,66.7,339.85
"3-HEXENE, 3-HEXENE, (Z)-, trans-3-Hexene",CCC=CCC,66.83,339.9833333
"Butane, 1,1,1,2,2,3,3,4,4-nonafluoro-4-iodo-",FC(F)(F)C(F)(F)C(F)(F)C(F)(F)I,67,340.15
ALLYL ETHYL ETHER,CCOCC=C,67.6,340.75
1-PROPANETHIOL,CCCS,67.8,340.95
"METHYL BORATE, TRIMETHYL BORATE",COB(OC)OC,68,341.15
1-CHLORO-2-METHYLPROPENE,CC(C)=CCl,68,341.15
"1-PROPENE, 3-METHOXY-2-METHYL-",COCC(C)=C,68,341.15
ISOPROPYL FORMATE,CC(C)OC=O,68.2,341.35
METHACROLEIN,CC(=C)C=O,68.4,341.55
ISOBUTYLAMINE,CC(C)CN,68.5,341.65
DI-ISOPROPYL ETHER,CC(C)OC(C)C,68.5,341.65
"2-BUTENE, 2,3-DICHLORO-1,1,1,4,4,4-HEXAFLUORO-",FC(F)(F)C(Cl)=C(Cl)C(F)(F)F,68.5,341.65
"Nitrous acid, 1-methylpropyl ester",CCC(C)ON=O,68.5,341.65
3-CHLORO-1-BUTYNE,CC(Cl)C#C,68.5,341.65
N-HEXANE,CCCCCC,68.7,341.85
"2,3-DIMETHYL-1,3-BUTADIENE",CC(=C)C(C)=C,68.8,341.95
"CYCLOPROPANE, PROPYL-",CCCC1CC1,69.1,342.25
"Propane, 2,2-dichloro-",CC(C)(Cl)Cl,69.3,342.45
OXAZOLE,c1[n]cco1,69.5,342.65
ETHYL ISOPROPYLAMINE,CCNC(C)C,69.6,342.75
"CYCLOPROPANE, (1-METHYLETHENYL)-",CC(=C)C1CC1,70,343.15
3-BROMO-1-PROPENE,C=CCBr,70.1,343.25
METHYL N-BUTYL ETHER,CCCCOC,70.1,343.25
DICHLORODIMETHYLSILANE,C[Si](C)(Cl)Cl,70.3,343.45
Perfluoro-tri-n-ethylamine,FC(F)(F)C(F)(F)N(C(F)(F)C(F)(F)F)C(F)(F)C(F)(F)F,70.3,343.45
METHYL CHLOROFORMATE,COC(=O)Cl,70.5,343.65
DIMETHYLBORANE,C[B]C |^1:1|,70.5,343.65
"CYCLOBUTANE, ETHYL-",CCC1CCC1,70.8,343.95
CHLOROTRIFLUOROETHENE,FC(Cl)=C(Cl)Cl,71,344.15
"Borinic acid, dimethylthio-, methyl ester",CSB(C)C,71,344.15
1-BROMOPROPANE,CCCBr,71.1,344.25
1-HEXYNE,CCCCC#C,71.3,344.45
3-CHLORO-2-METHYLPROPENE,CC(=C)CCl,71.5,344.65
"ETHANE, 1-BROMO-2-FLUORO-",FCCBr,71.5,344.65
"Ether, ethyl propenyl",CC=COCC,71.5,344.65
METHYLCYCLOPENTANE,CC1CCCC1,71.8,344.95
"1,1-Difluoro-1,2,2-trichloroethane",FC(F)(Cl)C(Cl)Cl,71.9,345.05
Hexafluoroglutaric anhydride,O=C1OC(=O)C(F)(F)C(F)(F)C1(F)F,72,345.15
"PROPANE, 1,2,2-TRICHLORO-1,1,3,3,3-PENTAFLUORO-",FC(F)(F)C(Cl)(Cl)C(F)(F)Cl,72,345.15
IODOETHANE,CCI,72.5,345.65
VINYL ACETATE,CC(=O)OC=C,72.5,345.65
"1-PENTENE, 4,4-DIMETHYL-",CC(C)(C)CC=C,72.5,345.65
"Thiirane, methyl-",CC1CS1,72.5,345.65
Methylcyclopentadiene,CC1CC=CC=1,72.78,345.93
TRIFLUOROACETIC ACID,OC(=O)C(F)(F)F,73,346.15
"1,1,1-trichloro-2,2-difluoropropane",CC(F)(F)C(Cl)(Cl)Cl,73,346.15
"Propanoic acid, pentafluoro-, anhydride",O=C(OC(=O)C(F)(F)C(F)(F)F)C(F)(F)C(F)(F)F,73,346.15
Carbonothioic dichloride,S=C(Cl)Cl,73,346.15
ETHYL T-BUTYL ETHER,CCOC(C)(C)C,73.1,346.25
2-BROMO-2-METHYLPROPANE,CC(C)(C)Br,73.3,346.45
"1,3-HEXADIENE",CCC=CC=C,73.5,346.65
"Propane, 1,2,3-trichloro-1,1,2,3,3-pentafluoro-",FC(Cl)(C(F)(F)Cl)C(F)(F)Cl,73.7,346.85
"1,1,1-TRICHLOROETHANE",CC(Cl)(Cl)Cl,74,347.15
Halopropane,FC(F)C(F)(F)CBr,74,347.15
"1,1,1-trichloro-2,2,3,3,3-pentafluoropropane",FC(F)(F)C(F)(F)C(Cl)(Cl)Cl,74,347.15
BUTYRALDEHYDE,CCCC=O,74.8,347.95
"Propane, 2-(ethenyloxy)-2-methyl-",CC(C)(C)OC=C,75,348.15
"1,3,5-TRIFLUOROBENZENE",Fc1cc(F)cc(F)c1,75.5,348.65
"1,1,1-TRIFLUORO-2-PROPANOL",C[C@H](O)C(F)(F)F,75.5,348.65
"CYCLOPENTENE, 1-METHYL-",CC1CCCC=1,75.5,348.65
ACRYLYL CHLORIDE,C=CC(=O)Cl,75.5,348.65
"Cyclopentane, methylene-",C=C1CCCC1,75.5,348.65
ACETYL BROMIDE,CC(=O)Br,76,349.15
"1-Butyne, 3-chloro-3-methyl-",CC(C)(Cl)C#C,76,349.15
ETHOXYTRIMETHYLSILANE,CCO[Si](C)(C)C,76,349.15
PERFLUOROMETHYLCYCLOHEXANE,FC(F)(F)C1(F)C(F)(F)C(F)(F)C(F)(F)C(F)(F)C1(F)F,76.3,349.45
"1,1-DICHLOROPROPENE",CC=C(Cl)Cl,76.5,349.65
"4-METHYL-1,3-PENTADIENE",CC(C)=CC=C,76.5,349.65
CARBON TETRACHLORIDE,ClC(Cl)(Cl)Cl,76.8,349.95
FLUOROACETONE,CC(=O)CF,77,350.15
"2-Butanamine, 2-methyl-",CCC(C)(C)N,77,350.15
"3-METHYL-1,3-PENTADIENE",CC=C(C)C=C,77,350.15
ACRYLONITRILE,C=CC#N,77.3,350.45
PIVALALDEHYDE,CC(C)(C)C=O,77.5,350.65
"3,3-DIMETHYL-1-PENTENE",CCC(C)(C)C=C,77.5,350.65
"2,3,3-TRIMETHYL-1-BUTENE",CC(=C)C(C)(C)C,77.9,351.05
2-METHYLTETRAHYDROFURAN,CC1CCCO1,78,351.15
N-BUTYLAMINE,CCCCN,78,351.15
"1-PROPENE, 1,1-DICHLORO-2-FLUORO-",CC(F)=C(Cl)Cl,78,351.15
1-BUTYLNITRITE,CCCCON=O,78,351.15
"1,3-DIOXALANE",C1OCCO1,78,351.15
"TRANS-1,3,5-HEXATRIENE, 1,3,5-HEXATRIENE, CIS-1,3,5-HEXATRIENE",C=CC=CC=C,78,351.15
DIETHYLCHLOROBORANE,CCB(Cl)CC,78.5,351.65
"2,2-DIMETHYLPENTANE",CCCC(C)(C)C,79.2,352.35
2-BUTANONE,CCC(C)=O,79.5,352.65
"3-Butyn-2-amine, 2-methyl-",CC(C)(N)C#C,79.5,352.65
METHYL PROPIONATE,CCC(=O)OC,79.8,352.95
BENZENE,c1ccccc1,80,353.15
Propanoyl chloride,CCC(=O)Cl,80,353.15
3-Chlorofuran,Clc1cocc1,80,353.15
METHYL ACRYLATE,COC(=O)C=C,80.2,353.35
HEXAFLUOROBENZENE,Fc1c(F)c(F)c(F)c(F)c1F,80.2,353.35
dibromochlorofluoromethane,FC(Cl)(Br)Br,80.3,353.45
"2,4-DIMETHYLPENTANE",CC(C)CC(C)C,80.4,353.55
"1,3-CYCLOHEXADIENE",C1CC=CC=C1,80.5,353.65
CYCLOHEXANE,C1CCCCC1,80.7,353.85
"1-CHLORO-2-BUTENE, 1-Chloro-but-2-ene, 2-Butene, 1-chloro-, (E)-",CC=CCCl,80.7,353.85
"2,2,3-TRIMETHYLBUTANE",CC(C)C(C)(C)C,80.8,353.95
1-METHYL-PYRROLIDINE,CN1CCCC1,81,354.15
Tetradecafluoro-hept-1-ene,FC(F)(F)C(F)(F)C(F)(F)C(F)(F)C(F)(F)C(F)=C(F)F,81,354.15
2-(TRIFLUORMETHYL)-2-PROPANOL,CC(C)(O)C(F)(F)F,81,354.15
"1,2-DIMETHYLHYDRAZINE",CNNC,81,354.15
"PROPANE, 1-ETHOXY-2-METHYL-",CCOCC(C)C,81,354.15
3-Hexyne,CCC#CCC,81,354.15
TRIMETHOXY SILANE,CO[SiH](OC)OC,81,354.15
"1-Propanamine, N-ethyl-",CCNCCC,81,354.15
"2,4-DIMETHYL-1-PENTENE",CC(C)CC(C)=C,81.6,354.75
PENTAFLUORO-1-PROPANOL,OCC(F)(F)C(F)(F)F,82,355.15
"SILANE, DIMETHOXYDIMETHYL-",C[Si](C)(OC)OC,82,355.15
"2,2-DIMETHYL-1-PROPYLAMIN",CC(C)(C)CN,82,355.15
ISOPROPANOL,CC(C)O,82.3,355.45
T-BUTANOL,CC(C)(C)O,82.4,355.55
PERFLUOROHEPTANE,FC(F)(F)C(F)(F)C(F)(F)C(F)(F)C(F)(F)C(F)(F)C(F)(F)F,82.5,355.65
tert-Butyl formate,CC(C)(C)OC=O,82.5,355.65
M-DIFLUOROBENZENE,Fc1cc(F)ccc1,82.6,355.75
"Methanediamine, N,N,N',N'-tetramethyl-",CN(C)CN(C)C,83,356.15
ISOBUTYL VINYL ETHER,CC(C)COC=C,83,356.15
"ACETIC ACID, TRIFLUORO-, 1,1-DIMETHYLETHYL ESTER",CC(C)(C)OC(=O)C(F)(F)F,83,356.15
1-BROMO-1-CHLOROETHANE,CC(Cl)Br,83,356.15
CHLOROMETHYL ETHYL ETHER,CCOCCl,83,356.15
"2-PROPYN-1-AMINE, N-METHYL-",CNCC#C,83,356.15
"2-PENTENE, 2,4-DIMETHYL-",CC(C)C=C(C)C,83.4,356.55
"Silane, chloroethenyldimethyl-",C[Si](C)(Cl)C=C,83.5,356.65
"Formic acid, 2-propenyl ester",C=CCOC=O,83.6,356.75
3-METHYL-1-HEXENE,CCCC(C)C=C,83.9,357.05
3-BUTYN-2-ONE,CC(=O)C#C,84,357.15
3-ETHYL-1-PENTENE,CCC(CC)C=C,84.1,357.25