NAME,SMILES,BP_C,BP_K
"Trisiloxane, 1,5-dichloro-1,1,3,3,5,5-hexamethyl",C[Si](C)(O[Si](C)(C)Cl)O[Si](C)(C)Cl,184,457.15
ANILINE,Nc1ccccc1,184.1,457.25
"BENZENE, 1-CHLORO-4-ETHYL-",CCc1ccc(Cl)cc1,184.4,457.55
2-ETHYL-1-HEXANOL,CCCCC(CO)CC,184.6,457.75
CROTONIC ACID,CC=CC(O)=O,184.85,458
O-ETHYL CARBAMATE (URETHANE),CCOC(N)=O,185,458.15
"BENZENEMETHANAMINE, .alpha.-METHYL-",CC(N)c1ccccc1,185,458.15
BENZYLAMINE,NCc1ccccc1,185,458.15
"Propanenitrile, 3-amino-",NCCC#N,185,458.15
CYCLOHEPTANOL,OC1CCCCCC1,185,458.15
"2,2-Dinitropropane",CC(C)([N+]([O-])=O)[N+]([O-])=O,185,458.15
IODOACETONITRILE,N#CCI,185,458.15
"Cyclohexanol, 3,3-dimethyl-",CC1(C)CC(O)CCC1,185,458.15
"CYCLOHEPTANONE, 2-METHYL-",CC1CCCCCC1=O,185,458.15
4-PROPYLPYRIDINE,CCCc1cc[n]cc1,185,458.15
1-METHYL-3-ETHENYL BENZENE,Cc1cccc(c1)C(C)=C,185,458.15
"1-Propene, 1,1,2,3,3-pentachloro-",ClC(Cl)=C(Cl)C(Cl)Cl,185,458.15
alpha-Pinene Oxide,CC1(C)C2CC1CC1OC12C,185,458.15
Phenyl Chloroformate,O=C(Cl)Oc1ccccc1,185,458.15
"4-Methyl-[1,3,2]dioxathiane 2-oxide",CC1CCOS(=O)O1,185,458.15
"Butanoic acid, 3-hydroxy-, ethyl ester",CCOC(=O)CC(C)O,185,458.15
"5-Methyl-[1,3,5]dithiazinane",CN1CSCSC1,185,458.15
"Propane, 1,3,3-triethoxy-",CCOCCC(OCC)OCC,185,458.15
"3-BUTENOIC ACID, 2,2-DIMETHYL-",CC(C)(C=C)C(O)=O,185,458.15
"Benzene, 1-methyl-4-(1-methylethenyl)-",Cc1ccc(cc1)C(C)=C,185.3,458.45
"2,3-Butanedione, monooxime",C/C(=N\O)/C(C)=O,185.5,458.65
P-FLUOROPHENOL,Oc1ccc(F)cc1,185.5,458.65
"1,1-Dinitroethane",CC([N+]([O-])=O)[N+]([O-])=O,185.5,458.65
"BENZENE, (1,1-DIMETHYLETHOXY)-",CC(C)(C)Oc1ccccc1,185.5,458.65
"PYRIDINE, 2-CHLORO-6-METHOXY-",COc1cccc(Cl)[n]1,185.5,458.65
"Pentanoic acid, butyl ester",CCCCC(=O)OCCCC,185.8,458.95
"Carbamic chloride, diethyl-",CCN(CC)C(=O)Cl,186,459.15
BUTYL LACTATE,CCCCOC(=O)C(C)O,186,459.15
BENZYL ETHYL ETHER,CCOCc1ccccc1,186,459.15
"2,2-DIMETHYL BUTYRIC ACID",CCC(C)(C)C(O)=O,186,459.15
"THIOCYANIC ACID, BUTYL ESTER",CCCCSC#N,186,459.15
"2,3,5,6-Tetrafluoro-4-(CF3)-aniline",Nc1c(F)c(F)c(c(F)c1F)C(F)(F)F,186,459.15
"Butanamide, N,N-dimethyl-",CCCC(=O)N(C)C,186,459.15
"2-BUTENEDINITRILE, (E)-",N#C/C=C/C#N,186,459.15
Neopentyl benzene,CC(C)(C)Cc1ccccc1,186,459.15
2-(DIMETHYLAMINO)ETHYL 2-METHYL-2-PROPENOATE,CC(=C)C(=O)OCCN(C)C,186,459.15
"3,5-DIMETHYL-4-HEPTANOL",CC(CC)C(O)C(C)CC,186,459.15
1-FLUORODECANE,CCCCCCCCCCF,186.2,459.35
ETHYL-P-NITROBENZOATE,CCOC(=O)c1ccc(cc1)[N+]([O-])=O,186.3,459.45
"2-ETHYL-1,4-DIMETHYLBENZENE",CCc1cc(C)ccc1C,186.9,460.05
"BENZENAMINE, 2-(TRIFLUOROMETHYL)-",Nc1ccccc1C(F)(F)F,187,460.15
"Benzene, 2-chloro-1,4-dimethyl-",Cc1cc(Cl)c(C)cc1,187,460.15
3-TRIFLUOROMETHYLANILINE,Nc1cc(ccc1)C(F)(F)F,187,460.15
ETHYL HEPTANOATE,CCCCCCC(=O)OCC,187,460.15
"DCIP  (2,2'-OXYBIS-1-CHLOROPROPANE)",CC(CCl)OC(C)CCl,187,460.15
PYRAZOLE,c1cc[n][nH]1,187,460.15
"Butanoic acid, 2-methyl-3-oxo-, ethyl ester",CC(=O)C(C)C(=O)OCC,187,460.15
"2-FURANCARBOXALDEHYDE, 5-METHYL-",Cc1ccc(C=O)o1,187,460.15
"DECANE, 4-METHYL-",CC(CCC)CCCCCC,187,460.15
DIMETHYLNITRAMINE,CN(C)[N+]([O-])=O,187,460.15
"BENZENE, (1,2-DIMETHYLPROPYL)-",CC(C)C(C)c1ccccc1,187,460.15
"3,5-DIMETHYLCYCLOHEXANOL",CC1CC(O)CC(C)C1,187,460.15
2-ETHYLSTYRENE,CCc1ccccc1C=C,187.3,460.45
PROPANOLAMINE,NCCCO,187.5,460.65
"BENZENE, (1-ETHYLPROPYL)-",CCC(CC)c1ccccc1,187.5,460.65
4-Nonanone,CCCC(=O)CCCCC,187.5,460.65
"PYRIDINE, 4-ETHYL-2,6-DIMETHYL-",CCc1cc(C)[n]c(C)c1,187.5,460.65
BIS (2-ETHOXY ETHYL)  ETHER,CCOCCOCCOCC,188,461.15
3-FLUOROANILINE,Nc1cc(F)ccc1,188,461.15
"1,2-Ethanediol, monoacetate",CC(=O)OCCO,188,461.15
DIETHYLCYANAMIDE,CCN(CC)C#N,188,461.15
"CYCLOTRISILAZANE, 2,2,4,4,6,6-HEXAMETHYL-",C[Si]1(C)N[Si](C)(C)N[Si](C)(C)N1,188,461.15
Triisobutyl boron,CC(C)CB(CC(C)C)CC(C)C,188,461.15
"2,4,5-TRIMETHYLPYRIDINE",Cc1c[n]c(C)cc1C,188,461.15
"1,2,3,4-TETRACHLOROBUTA-1,3-DIENE",ClC(=CCl)C(Cl)=CCl,188,461.15
"1-HEPTANOL, 6-METHYL-",CC(C)CCCCCO,188,461.15
"2,4,6-Octatriene, 2,6-dimethyl-, (E,E)-",CC(C)=CC=CC(C)=CC,188,461.15
"2-Chloro-3,4-dimethyl-phenol",Cc1ccc(O)c(Cl)c1C,188,461.15
"DECANE, 3-METHYL-",CCCCCCCC(C)CC,188.1,461.25
5-NONANONE,CCCCC(=O)CCCC,188.4,461.55
"1,3-DIMETHYL-4-ETHYLBENZENE",CCc1ccc(C)cc1C,188.4,461.55
"2,3-DIHYDROBENZOFURAN",C1COc2ccccc21,188.5,461.65
4-Pentenoic acid,C=CCCC(O)=O,188.5,461.65
"Benzene, 1-ethoxy-4-methyl-",Cc1ccc(cc1)OCC,188.5,461.65
"BENZENE, (2-BROMO-1-METHYLETHYL)-",CC(CBr)c1ccccc1,188.5,461.65
"4-Piperidinamine, 2,2,6,6-tetramethyl-",CC1(C)CC(N)CC(C)(C)N1,188.5,461.65
"Benzene, 1-fluoro-2-iodo-",Fc1ccccc1I,188.6,461.75
O-CHLOROSTYRENE,C=Cc1ccccc1Cl,188.7,461.85
DIMETHYL SULFOXIDE,CS(C)=O,189,462.15
2-METHYL-6-CHLOROPHENOL,Cc1cccc(Cl)c1O,189,462.15
Perfluorooctanoic Acid,OC(=O)C(F)(F)C(F)(F)C(F)(F)C(F)(F)C(F)(F)C(F)(F)C(F)(F)F,189,462.15
"Butanoic acid, 3,3-dimethyl-2-oxo-",CC(C)(C)C(=O)C(O)=O,189,462.15
"Cyclohexanemethanol, .alpha.-methyl-",CC(O)C1CCCCC1,189,462.15
"Benzoyl chloride, 3-fluoro-",O=C(Cl)c1cccc(F)c1,189,462.15
"PYRAZINE, 2-METHYL-3-PROPYL-",Cc1[n]cc[n]c1CCC,189,462.15
CHLOROACETIC ACID,OC(=O)CCl,189.3,462.45
"BENZENE, 1-(1,1-DIMETHYLETHYL)-3-METHYL-",Cc1cccc(c1)C(C)(C)C,189.3,462.45
CARBON TETRABROMIDE,BrC(Br)(Br)Br,189.5,462.65
"1-Propanol, 3-(diethylamino)-",CCN(CCCO)CC,189.5,462.65
"4-ETHYL-1,2-DIMETHYLBENZENE",CCc1cc(C)c(C)cc1,189.5,462.65
2-(BIS(1-METHYLETHYL)AMINO)ETHANOL,CC(C)N(CCO)C(C)C,190,463.15
P-(T-BUTYL)TOLUENE,Cc1ccc(cc1)C(C)(C)C,190,463.15
ETHYLENE GLYCOL DIACETATE,CC(=O)OCCOC(C)=O,190,463.15
"Carbonic acid, bis(2-methylpropyl) ester",CC(C)COC(=O)OCC(C)C,190,463.15
DICHLORO(2-CHLOROVINYL)ARSINE (TRANS),ClC=C[As](Cl)Cl,190,463.15
DI-N-PENTYLETHER,CCCCCOCCCCC,190,463.15
3-Nonanone,CCCCCCC(=O)CC,190,463.15
"Butanoic acid, 3,3-dimethyl-",CC(C)(C)CC(O)=O,190,463.15
"PYRAZINE, TETRAMETHYL-",Cc1[n]c(C)c(C)[n]c1C,190,463.15
"Propanoic acid, hexyl ester",CCCCCCOC(=O)CC,190,463.15
Cyclooctanamine,NC1CCCCCCC1,190,463.15
M-ETHYLSTYRENE,CCc1cc(C=C)ccc1,190,463.15
2-(Butoxymethyl)furan,CCCCOCc1ccco1,190,463.15
ISOAMYL ISOVALERATE,CC(C)CC(=O)OCCC(C)C,190.4,463.55
BENZYLTRIMETHYLSILANE,C[Si](C)(C)Cc1ccccc1,190.5,463.65
O-CRESOL,Cc1ccccc1O,191,464.15
NONANAL,CCCCCCCCC=O,191,464.15
Oxalic acid diisopropyl ester,CC(C)OC(=O)C(=O)OC(C)C,191,464.15
2-Bromo-pentanoic acid ethyl ester,CCOC(=O)C(Br)CCC,191,464.15
1-Dipropoxymethoxy-propane,CCCOC(OCCC)OCCC,191,464.15
2-HYDROXYETHYL ACRYLATE,C=CC(=O)OCCO,191,464.15
"HEPTANE, 1,1-DICHLORO-",CCCCCCC(Cl)Cl,191,464.15
"Propanamide, N,N-diethyl-",CCC(=O)N(CC)CC,191,464.15
"Cyclohexanone, 2,4,4-trimethyl-",CC1CC(C)(C)CCC1=O,191,464.15
"1H-INDENE, 2,3-DIHYDRO-1,1-DIMETHYL-",CC1(C)CCc2ccccc12,191,464.15
3-Oxo-pentanoic acid ethyl ester,CCOC(=O)CC(=O)CC,191,464.15
"2-Propene-1,1-diol, 2-methyl-, diacetate",CC(=C)C(OC(C)=O)OC(C)=O,191,464.15
2-METHYLCYCLOPROPANECARBOXYLIC ACID,C[C@H]1C[C@H]1C(O)=O,191,464.15
"Benzene, 1-chloro-2-(1-methylethyl)-",CC(C)c1ccccc1Cl,191.1,464.25
"Furan, 2-(diethoxymethyl)-",CCOC(OCC)c1ccco1,191.5,464.65
"BENZENE, (1-ETHYL-2-PROPENYL)-",CCC(C=C)c1ccccc1,191.5,464.65
ALLYLPHENYL ETHER,C=CCOc1ccccc1,191.7,464.85
CYANURIC CHLORIDE,Clc1[n]c(Cl)[n]c(Cl)[n]1,192,465.15
2-BUTOXYETHANOL ACETATE,CCCCOCCOC(C)=O,192,465.15
PHTHALAN,C1OCc2ccccc21,192,465.15
"Benzene, 1-ethoxy-3-methyl-",Cc1cccc(c1)OCC,192,465.15
N-Propyl-O-ethylcarbamate,CCOC(=O)NCCC,192,465.15
"BUTANENITRILE, 4-CHLORO-",N#CCCCCl,192,465.15
P-CHLOROSTYRENE,C=Cc1ccc(Cl)cc1,192,465.15
2-ACETYLPYRIDINE,CC(=O)c1cccc[n]1,192,465.15
"PYRIDINE, 2-CHLORO-4-METHYL-",Cc1cc(Cl)[n]cc1,192,465.15
"BENZENE, 1-ETHYL-3-(1-METHYLETHYL)-",CCc1cc(ccc1)C(C)C,192,465.15
"PYRIDINE, 2-BUTYL-",CCCCc1cccc[n]1,192,465.15
"1-Methoxy-2,4-dimethyl-benzene",Cc1cc(C)c(cc1)OC,192,465.15
P-ETHYLSTYRENE,CCc1ccc(C=C)cc1,192.3,465.45
4-(TRIFLUOROMETHOXY)BENZONITRILE,N#Cc1ccc(cc1)OC(F)(F)F,192.5,465.65
"2,3,4-TRIMETHYLPYRIDINE",Cc1cc[n]c(C)c1C,192.5,465.65
"1,2-Propanediol, 3-chloro-, dinitrate",[O-][N+](=O)OCC(CCl)O[N+]([O-])=O,192.5,465.65
"4-UNDECENE, (E)-, 4-UNDECENE, (Z)-",CCC/C=C/CCCCCC,192.8,465.95
METHYL OCTANOATE,CCCCCCCC(=O)OC,192.9,466.05
"Cyclohexanamine, N,N-diethyl-",CCN(CC)C1CCCCC1,193,466.15
THIOANISOLE,CSc1ccccc1,193,466.15
DIETHYLENE GLYCOL MONOMETHYL ETHER,COCCOCCO,193,466.15
5-NONANOL,CCCCC(O)CCCC,193,466.15
NITROHEXANE,CCCCCC[N+]([O-])=O,193,466.15
Trimethylacetic anhydride,CC(C)(C)C(=O)OC(=O)C(C)(C)C,193,466.15
Propionic acid cyclohexyl ester,CCC(=O)OC1CCCCC1,193,466.15
SUCCINYL CHLORIDE,O=C(Cl)CCC(=O)Cl,193.3,466.45
"N,N-DIMETHYLANILINE",CN(C)c1ccccc1,193.45,466.6
2-NONANOL,CCCCCCC[C@H](C)O,193.5,466.65
Dichloro-acetic acid butyl ester,CCCCOC(=O)C(Cl)Cl,193.5,466.65
DICHLOROACETIC ACID,OC(=O)C(Cl)Cl,194,467.15
2-ETHYLBUTYRIC ACID,CCC(CC)C(O)=O,194,467.15
DECAMETHYLTETRASILOXANE,C[Si](C)(C)O[Si](C)(C)O[Si](C)(C)O[Si](C)(C)C,194,467.15
"1,2-BUTANEDIOL",CCC(O)CO,194,467.15
"Acetic acid, dibromo-, ethyl ester",CCOC(=O)C(Br)Br,194,467.15
DIETHYL METHYLPHOSPHONATE,CP(=O)(OCC)OCC,194,467.15
"HEPTANE, 1-NITRO-",CCCCCCC[N+]([O-])=O,194,467.15
"1,2-Cyclohexanedione",O=C1CCCCC1=O,194,467.15
"3,5-Dimethylanisole",COc1cc(C)cc(C)c1,194,467.15
"1,4-Dimethyl-2-methyoxybenzene",Cc1cc(OC)c(C)cc1,194,467.15
ISONONYL ALCOHOL,CC(CCO)CC(C)(C)C,194,467.15
"BENZENEMETHANAMINE, N-ETHYL-",CCNCc1ccccc1,194,467.15
STYRENE OXIDE,C1OC1c1ccccc1,194.1,467.25
"N,N-DIMETHYL-O-TOLUIDINE",Cc1ccccc1N(C)C,194.1,467.25
O-BROMOPHENOL,Oc1ccccc1Br,194.5,467.65
Benzenemethanethiol,SCc1ccccc1,194.5,467.65
DI-I-PROPYLNITROSOAMINE,CC(C)N(N=O)C(C)C,194.5,467.65
"1,2,4-Trifluoro-5-nitrobenzene",[O-][N+](=O)c1cc(F)c(F)cc1F,194.5,467.65
"(2,2-Diethoxy-ethyl)-diethyl-amine",CCN(CC(OCC)OCC)CC,194.5,467.65
"3-Cyclohexene-1-carboxylic acid, ethyl ester",CCOC(=O)C1CC=CCC1,194.5,467.65
"BENZENE, (1-METHYL-1-PROPENYL)-, (Z)-, BENZENE, (1-METHYL-1-PROPENYL)-, (E)-",C/C(=C/C)/c1ccccc1,194.7,467.85
2-BROMOPYRIDINE,Brc1cccc[n]1,194.8,467.95
"Ethane, 1,2-dibromo-1,1-dichloro-",ClC(Cl)(Br)CBr,195,468.15
4-METHYLBENZENETHIOL,Cc1ccc(S)cc1,195,468.15
3-METHYLBENZENETHIOL,Cc1cc(S)ccc1,195,468.15
PHENYLACETALDEHYDE,O=CCc1ccccc1,195,468.15
"Decane, heneicosafluoro-10-iodo-",FC(F)(F)C(F)(F)C(F)(F)C(F)(F)C(F)(F)C(F)(F)C(F)(F)C(F)(F)C(F)(F)C(F)(F)I,195,468.15
"2-Furanmethanol, propanoate",CCC(=O)OCc1ccco1,195,468.15
2-ETHYL-2-HEXENAL,CCCC=C(CC)C=O,195,468.15
"ETHANE, 1,2-DIBROMO-1,2-DICHLORO-",ClC(Br)C(Cl)Br,195,468.15
"1H-INDENE, 2,3-DIHYDRO-2-METHYL-",CC1Cc2ccccc2C1,195,468.15
"CYCLODECENE, (Z)-",C1CCCCCCCC=C1,195,468.15
"Acetamide, N-acetyl-N-methyl-",CN(C(C)=O)C(C)=O,195,468.15
"BENZENE, (3-METHYLBUTYL)-",CC(C)CCc1ccccc1,195,468.15
"1,3-Propanediol, 2-methyl-",CC(CO)CO,195,468.15
1-Piperidin-2-yl-propan-2-one,CC(=O)CC1CCCCN1,195,468.15
1-Chloro-3-(2-chloro-ethoxy)-butane,CC(CCCl)OCCCl,195,468.15
1-OCTANOL,CCCCCCCCO,195.1,468.25
2-NONANONE,CCCCCCCC(C)=O,195.3,468.45
"BENZENE, (2-METHYLBUTYL)-",CCC(C)Cc1ccccc1,195.4,468.55
"Pyridine, 2-(1-ethylpropyl)-",CCC(CC)c1cccc[n]1,195.4,468.55
"BENZENE, 1-(CHLOROMETHYL)-3-METHYL-",Cc1cc(CCl)ccc1,195.5,468.65
"2-Hexanone, 5-methyl-, oxime",CC(C)CCC(C)=NO,195.5,468.65
"2,4-Hexadienoic acid, ethyl ester",CC=CC=CC(=O)OCC,195.5,468.65
Octanoyl chloride,CCCCCCCC(=O)Cl,195.6,468.75
"Cyclohexanol, 3,3,5-trimethyl-, trans-, Cyclohexanol, 3,3,5-trimethyl-, cis-",CC1CC(O)CC(C)(C)C1,195.6,468.75
"1,2-DIBROMO-3-CHLOROPROPANE",ClCC(Br)CBr,196,469.15
P-BROMOCHLOROBENZENE,Clc1ccc(Br)cc1,196,469.15
M-BROMOCHLOROBENZENE,Clc1cc(Br)ccc1,196,469.15
DIETHYLENE GLYCOL MONOETHYL ETHER,CCOCCOCCO,196,469.15
4-FLUOROACETOPHENONE,CC(=O)c1ccc(F)cc1,196,469.15
"1-PENTANONE, 1-(3-FURANYL)-4-METHYL-",CC(C)CCC(=O)c1ccoc1,196,469.15
"PENTANOIC ACID, 4-OXO-, METHYL ESTER",CC(=O)CCC(=O)OC,196,469.15
O-PROPYLCARBAMATE,CCCOC(N)=O,196,469.15
"Ethanol, 2-(2-(ethenyloxy)ethoxy)- (9CI)",C=COCCOCCO,196,469.15
"BUTANOIC ACID, 3-OXO-, 2-PROPENYL ESTER",CC(=O)CC(=O)OCC=C,196,469.15
1-Cyclohexyl-propan-1-one,CCC(=O)C1CCCCC1,196,469.15
"Cyclopentanone, oxime",ON=C1CCCC1,196,469.15
2-Dipropylamino-ethanol,CCCN(CCO)CCC,196,469.15
"4,4-Diethoxy-butylamine",CCOC(CCCN)OCC,196,469.15
"Ethanamine, N-(phenylmethylene)-",CCN=Cc1ccccc1,196,469.15
N-METHYLANILINE,CNc1ccccc1,196.2,469.35
DIMETHYL SUCCINATE,COC(=O)CCC(=O)OC,196.4,469.55
"PENTANOIC ACID, 2-METHYL-",CCCC(C)C(O)=O,196.5,469.65
"3-BUTENE-1,2-DIOL",C=CC(O)CO,196.5,469.65
2-METHYL-2-IMIDAZOLINE,CC1NCCN=1,196.5,469.65
Dimethyl-aminophenylmethane,CC(C)(N)c1ccccc1,196.5,469.65
4-(TERT-BUTYL)PYRIDINE,CC(C)(C)c1cc[n]cc1,196.5,469.65
"3,7-Dimethyl-octan-3-ol",CCC(C)(O)CCCC(C)C,196.5,469.65
"BENZENE, 1-ETHYL-4-(1-METHYLETHYL)-",CCc1ccc(cc1)C(C)C,196.6,469.75
"1,2,4,5-TETRAMETHYLBENZENE",Cc1cc(C)c(C)cc1C,196.8,469.95
"FUROIC ACID, ETHYL ESTER",CCOC(=O)c1ccco1,196.8,469.95
O-HYDROXYBENZALDEHYDE,Oc1ccccc1C=O,197,470.15
"Cyclohexanone, 2-propyl-",CCC[C@H]1CCCCC1=O,197,470.15
THIOPHENE-2-CARBOXALDEHYDE,O=Cc1ccc[s]1,197,470.15
"2-Butenoic acid, 3-methyl-",CC(C)=CC(O)=O,197,470.15
"Benzene, 1-ethenyl-2-methoxy-",COc1ccccc1C=C,197,470.15
"S,S-DIETHYL CARBONODITHIOATE",CCSC(=O)SCC,197,470.15
"PROPANEDIOIC ACID, DIMETHYL-, DIETHYL ESTER",CC(C)(C(=O)OCC)C(=O)OCC,197,470.15
"BENZENEETHANOL, .ALPHA.,.ALPHA.,.BETA.-TRIMETHYL",CC(c1ccccc1)C(C)(C)O,197,470.15
"1,2-Ethanediamine, N,N'-bis(1,1-dimethylethyl)-",CC(C)(C)NCCNC(C)(C)C,197,470.15
"BENZENE, 2,4-DIMETHYL-1-(1-METHYLETHYL)-",Cc1cc(C)c(cc1)C(C)C,197,470.15
BENZOYL CHLORIDE,O=C(Cl)c1ccccc1,197.2,470.35
ETHYLENE GLYCOL,OCCO,197.3,470.45
2-PHENYLETHYLAMINE,NCCc1ccccc1,197.5,470.65
"LINALOOL, 3,7-Dimethyl-octa-1,6-dien-3-ol",CC(C)=CCCC(C)(O)C=C,197.5,470.65
PHORONE,CC(C)=CC(=O)C=C(C)C,197.5,470.65
4-CHLOROANISOLE,COc1ccc(Cl)cc1,197.5,470.65
"BENZENE, (2-METHYLPROPOXY)-",CC(C)COc1ccccc1,197.5,470.65
"BENZOFURAN, 2,3-DIHYDRO-2-METHYL-",CC1Cc2ccccc2O1,197.5,470.65
2-METHYLBENZOFURAN,Cc1cc2ccccc2o1,197.5,470.65
"Phosphonic acid, ethyl-, diethyl ester",CCP(=O)(OCC)OCC,198,471.15
SOMAN,CC(OP(C)(=O)F)C(C)(C)C,198,471.15
"2-METHYL-2,4-PENTANEDIOL",CC(O)CC(C)(C)O,198,471.15
"2,6-DICHLOROTOLUENE",Cc1c(Cl)cccc1Cl,198,471.15
"1,2,3,5-TETRAMETHYLBENZENE",Cc1cc(C)c(C)c(C)c1,198,471.15
"Pyridine, 3-ethyl-4-methyl-",Cc1cc[n]cc1CC,198,471.15
"Butanoic acid, 2-ethyl-3-oxo-, ethyl ester",CC(=O)C(CC)C(=O)OCC,198,471.15
N-FORMYLETHYLAMINE,CCNC=O,198,471.15
"1H-INDENE, 3-METHYL-",CC1=CCc2ccccc21,198,471.15
"1,2-Dibromo-3,4,5,6-tetrafluorobenzene",Fc1c(Br)c(Br)c(F)c(F)c1F,198,471.15
"3,5-Dimethyl-2-ethylpyridine",CCc1[n]cc(C)cc1C,198,471.15
"BENZENE, 1-ETHYL-4-METHOXY-",CCc1ccc(cc1)OC,198,471.15
5-Methyl-benzofuran,Cc1cc2ccoc2cc1,198,471.15
"PIPERIDINE, 1-PENTYL-",CCCCCN1CCCCC1,198.2,471.35
"Benzene, 1-chloro-4-(1-methylethyl)-",CC(C)c1ccc(Cl)cc1,198.3,471.45
"BENZENE, 1,3,5-TRICHLORO-2,4,6-TRIFLUORO-",Fc1c(Cl)c(F)c(Cl)c(F)c1Cl,198.4,471.55
TIGLIC ACID,C/C(=C\C)/C(O)=O,198.5,471.65
ETHYLENE GLYCOL DINITRATE,[O-][N+](=O)OCCO[N+]([O-])=O,198.5,471.65
"Ethene, 1,1'-(oxybis(2,1-ethanediyloxy))bis-",C=COCCOCCOC=C,198.5,471.65
"2-Furancarboxylic acid, 1-methylethyl ester",CC(C)OC(=O)c1ccco1,198.5,471.65
1-BUTENYLBENZENE,CCC=Cc1ccccc1,198.7,471.85
"Phosphonothioic acid, methyl-, diethyl ester",CP(=S)(OCC)OCC,198.9,472.05
"BENZOIC ACID, METHYL ESTER",COC(=O)c1ccccc1,199,472.15
"Ethanol, 2-(butylamino)-",CCCCNCCO,199,472.15
3'-(Trifluoromethyl)acetophenone,CC(=O)c1cc(ccc1)C(F)(F)F,199,472.15
3-FLUORONITROBENZENE,[O-][N+](=O)c1cccc(F)c1,199,472.15
"1H-PYRROLE, 3-ETHYL-2,4-DIMETHYL-",CCc1c(C)c[nH]c1C,199,472.15
"BENZENE, (1-CHLOROETHENYL)-",C=C(Cl)c1ccccc1,199,472.15
"Benzaldehyde, 3-methyl-",Cc1cc(C=O)ccc1,199,472.15
"2,4-Pentanediol",CC(O)CC(C)O,199,472.15
1-Methylindene,C[C@@H]1C=Cc2ccccc21,199,472.15
3-Ethyl-octan-3-ol,CCCCCC(O)(CC)CC,199,472.15
"Propanoic acid, 2-bromo-2-methyl-",CC(C)(Br)C(O)=O,199,472.15
"BENZENE, (1-METHYLBUTYL)-",CCCC(C)c1ccccc1,199,472.15
"2,3-Dimethylanisole",Cc1cccc(OC)c1C,199,472.15
"2,4-PENTANEDIONE, 3-(2-PROPENYL)-",CC(=O)C(CC=C)C(C)=O,199,472.15
"Acetic acid, diethoxy-, ethyl ester",CCOC(=O)C(OCC)OCC,199,472.15
2-Isobutylamino-ethanol,CC(C)CNCCO,199,472.15
"3-Pentenoic acid, 2-methyl-",CC=CC(C)C(O)=O,199,472.15
1-OCTANETHIOL,CCCCCCCCS,199.1,472.25
"1,4-DITHIANE",C1CSCCS1,199.5,472.65
"BENZENEMETHANAMINE, N-(1-METHYLETHYL)-",CC(C)NCc1ccccc1,200,473.15
DIETHYL MALONATE,CCOC(=O)CC(=O)OCC,200,473.15
BUTYRIC ANHYDRIDE,CCCC(=O)OC(=O)CCC,200,473.15
1-BROMOOCTANE,CCCCCCCCBr,200,473.15
2-METHYLBENZALDEHYDE,Cc1ccccc1C=O,200,473.15
"BENZALDEHYDE, OXIME, (Z)-",ON=Cc1ccccc1,200,473.15
"ETHANE, 1,2-DIIODO-",ICCI,200,473.15
"Ethanol, 2,2'-oxybis-, diacetate",CC(=O)OCCOCCOC(C)=O,200,473.15
"1,3-BUTANEDIOL, 2-METHYL-",CC(O)C(C)CO,200,473.15
(ACETYLOXY)ACETONITRILE,CC(=O)OCC#N,200,473.15
"Benzenamine, N-sulfinyl-",O=S=Nc1ccccc1,200,473.15
Pentyloxybenzene,CCCCCOc1ccccc1,200,473.15
"Benzene, 1-chloro-2-isocyanato-",O=C=Nc1ccccc1Cl,200,473.15
4-Piperidinemethanamine,NCC1CCNCC1,200,473.15
"Benzene, 1,4-dichloro-2-methyl-",Cc1cc(Cl)ccc1Cl,200,473.15
"1,2-DICHLOROCYCLOHEXANE -TRANS, CYCLOHEXANE, 1,2-DICHLORO-, CIS-",Cl[C@@H]1CCCC[C@H]1Cl,200.2,473.35
O-TOLUIDINE,Cc1ccccc1N,200.3,473.45
P-TOLUIDINE,Cc1ccc(N)cc1,200.4,473.55
"Benzoxazole, 2-methyl-",Cc1[n]c2ccccc2o1,200.5,473.65
METHYL CYANOACETATE,COC(=O)CC#N,200.5,473.65
4-METHYLPENTANOIC ACID,CC(C)CCC(O)=O,200.5,473.65
2-METHYLAMINOPYRIDINE,CNc1cccc[n]1,200.5,473.65
PHENYLTRICHLOROSILANE,Cl[Si](Cl)(Cl)c1ccccc1,201,474.15
ALPHA-BROMOTOLUENE,BrCc1ccccc1,201,474.15
P-(CHLOROMETHYL)TOLUENE,Cc1ccc(CCl)cc1,201,474.15
"1,4-Pentanediamine, N1,N1-diethyl-",CC(N)CCCN(CC)CC,201,474.15
"BENZENEMETHANOL, 3-FLUORO-",OCc1cccc(F)c1,201,474.15
"2,6-DIMETHYLPHENOL",Cc1cccc(C)c1O,201,474.15
"Propanedioic acid, methyl-, diethyl ester",CC(C(=O)OCC)C(=O)OCC,201,474.15
"2-Cyclohexen-1-one, 3-methyl-",CC1CCCC(=O)C=1,201,474.15
"Butanoic acid, 2-acetyl-3-methyl-, ethyl ester",CC(=O)C(C(C)C)C(=O)OCC,201,474.15
"2-Furancarboxaldehyde, 5-bromo-",O=Cc1ccc(Br)o1,201,474.15
3-Methyl-cyclohex-3-enone,CC1CC(=O)CCC=1,201,474.15
"Benzoxazole, 2-chloro-",Clc1[n]c2ccccc2o1,201.5,474.65
"Ethanesulfonyl chloride, 2-chloro-",O=S(=O)(Cl)CCCl,201.5,474.65
"3,5-DICHLOROTOLUENE",Cc1cc(Cl)cc(Cl)c1,201.5,474.65
P-CRESOL,Cc1ccc(O)cc1,201.9,475.05
ACETOPHENONE,CC(=O)c1ccccc1,202,475.15
CYCLODECANE,C1CCCCCCCCC1,202,475.15
TILLAM,CCN(CCCC)C(=O)SCCC,202,475.15
2-PHENYL ISOPROPANOL,CC(C)(O)c1ccccc1,202,475.15
"1,4-Dihydroxypentane",C[C@H](O)CCCO,202,475.15
"Phosphonic acid, vinyl-, diethyl ester",CCOP(=O)(C=C)OCC,202,475.15
N-METHYLPYRROLIDONE,CN1CCCC1=O,202,475.15
"1H-INDENE, 2,3-DIHYDRO-5-METHYL-",Cc1cc2CCCc2cc1,202,475.15
2-Piperidineethanol,OCCC1CCCCN1,202,475.15
N-tert-Butylformamide,CC(C)(C)NC=O,202,475.15
1-PIPERIDINE ETHANOL,OCCN1CCCCC1,202,475.15
"4-Methoxy-1,2-dimethyl-benzene",COc1cc(C)c(C)cc1,202,475.15
M-CRESOL,Cc1cc(O)ccc1,202.2,475.35
N-NONYLAMINE,CCCCCCCCCN,202.2,475.35
"Propanoic acid, 2-hydroxy-, 3-methylbutyl ester",CC(C)CCOC(=O)C(C)O,202.4,475.55
DIPENTYLAMINE,CCCCCNCCCCC,202.5,475.65
"1,3,4-THIADIAZOLE, 2,5-DIMETHYL-",Cc1[n][n]c(C)[s]1,202.5,475.65
M-TRIFLUOROMETHYLNITROBENZENE,[O-][N+](=O)c1cc(ccc1)C(F)(F)F,202.8,475.95
"DEXTROAMPHETAMINE, BENZENEETHANAMINE, A-METHYL-, (R)-, ALPHA-METHYLPHENETHYLAMINE",C[C@H](N)Cc1ccccc1,203,476.15
METHYL METHANE SULFONATE,COS(C)(=O)=O,203,476.15
"Pyridine, 2-(2-methoxyethyl)-",COCCc1cccc[n]1,203,476.15
HEXACHLOROACETONE,O=C(C(Cl)(Cl)Cl)C(Cl)(Cl)Cl,203,476.15
"2,1,3-BENZOTHIADIAZOLE",c1cccc2[n][s][n]c21,203,476.15
CHLOROACETIC ANHYDRIDE,O=C(CCl)OC(=O)CCl,203,476.15
THUJONE,CC(C)[C@@]12C[C@@H]1[C@@H](C)C(=O)C2,203,476.15
A-BROMOPROPIONIC ACID,CC(Br)C(O)=O,203,476.15
"2-Butanone, 4-(2-furanyl)-",CC(=O)CCc1ccco1,203,476.15
"Benzenamine, N-(1-methylethyl)-",CC(C)Nc1ccccc1,203,476.15
"2-Butene, 1,4-dibromo-, (E)-",BrC/C=C/CBr,203,476.15
3-DECANONE,CCCCCCCC(=O)CC,203,476.15
2-PYRIDINEMETHANEAMINE,NCc1cccc[n]1,203,476.15
HEXYLCYCLOPENTANE,CCCCCCC1CCCC1,203,476.15
"1,3-DIISOPROPYLBENZENE",CC(C)c1cc(ccc1)C(C)C,203.2,476.35
M-TOLUIDINE,Cc1cc(N)ccc1,203.3,476.45
"1,2-DIBUTOXYETHANE",CCCCOCCOCCCC,203.3,476.45
"Benzeneacetaldehyde, .alpha.-methyl-",CC(C=O)c1ccccc1,203.5,476.65
"Benzenemethanamine, 3-methyl-",Cc1cc(CN)ccc1,203.5,476.65
1-CHLORO-4-ISOCYANATOBENZENE,O=C=Nc1ccc(Cl)cc1,203.5,476.65