NAME,SMILES,BP_C,BP_K
2-Ethylhexyl fumarate,CCCCC(COC(=O)/C=C/C(=O)OCC(CCCC)CC)CC,300,573.15
"Benzenamine, 2,4,6-tribromo-",Nc1c(Br)cc(Br)cc1Br,300,573.15
"Benzoic acid, 2,4,5-trimethoxy-",COc1cc(C(O)=O)c(cc1OC)OC,300,573.15
DIPHENYLACETYLENE,c1ccccc1C#Cc1ccccc1,300,573.15
"BENZYLMALONIC ACID, DIETHYL ESTER",CCOC(=O)C(Cc1ccccc1)C(=O)OCC,300,573.15
"BENZENE, 1-METHYL-2,4,5-TRINITRO-",Cc1cc(c(cc1[N+]([O-])=O)[N+]([O-])=O)[N+]([O-])=O,300,573.15
Nonadecanoic acid,CCCCCCCCCCCCCCCCCCC(O)=O,300,573.15
3-BROMOBIPHENYL,Brc1cc(ccc1)-c1ccccc1,300,573.15
1-HEPTADECENE,CCCCCCCCCCCCCCCC=C,300,573.15
"BENZENE, 1,1'-(1,3-PROPANEDIYL)BIS-",C(CCc1ccccc1)c1ccccc1,300.3,573.45
1-NAPHTHYLAMINE,Nc1cccc2ccccc21,300.8,573.95
"2,5-DICHLOROBENZOIC ACID",OC(=O)c1cc(Cl)ccc1Cl,301,574.15
"2,3,4,5,6-PENTACHLOROTOLUENE",Cc1c(Cl)c(Cl)c(Cl)c(Cl)c1Cl,301,574.15
alpha-Santalol,C[C@]1(CC/C=C(/C)\CO)C2C[C@@H]3[C@H](C2)C13C,301.5,574.65
Diphenyl selenide,c1ccccc1[Se]c1ccccc1,301.5,574.65
1-IODONAPHTHALENE,Ic1cccc2ccccc21,302,575.15
4-AMINOBIPHENYL,Nc1ccc(cc1)-c1ccccc1,302,575.15
1-(2-NAPHTHALENYL)ETHANONE,CC(=O)c1cc2ccccc2cc1,302,575.15
DIPHENYLAMINE,c1ccccc1Nc1ccccc1,302,575.15
HEPTADECANE,CCCCCCCCCCCCCCCCC,302,575.15
"1,4-Benzenedicarboxylic acid, diethyl ester",CCOC(=O)c1ccc(cc1)C(=O)OCC,302,575.15
"1,3-Benzenedicarboxylic acid, diethyl ester",CCOC(=O)c1cc(ccc1)C(=O)OCC,302,575.15
"3-BUTENOIC ACID, 4-PHENYL-",OC(=O)CC=Cc1ccccc1,302,575.15
Benzyl-o-tolyl-amine,Cc1ccccc1NCc1ccccc1,302.5,575.65
3-METHYLACETANILIDE,Cc1cccc(c1)NC(C)=O,303,576.15
"2,3-Dihydroxy-succinic acid dipropyl ester",CCCOC(=O)C(O)C(O)C(=O)OCCC,303,576.15
Naphthalen-2-yl-acetonitrile,N#CCc1cc2ccccc2cc1,303,576.15
Benzhydrylamin,NC(c1ccccc1)c1ccccc1,304,577.15
O-METHOXYACETANILIDE,CC(=O)Nc1ccccc1OC,304,577.15
"2,3,5,6-TETRACHLORONITROBENZENE",[O-][N+](=O)c1c(Cl)c(Cl)cc(Cl)c1Cl,304,577.15
Hydrohydrastinine,CN1Cc2cc3OCOc3cc2CC1,304,577.15
1-NAPHTHALENEMETHANOL,OCc1cccc2ccccc21,304,577.15
DIETHYL SEBACATE,CCOC(=O)CCCCCCCCC(=O)OCC,305,578.15
"1-NAPHTHALENAMINE, N-ETHYL-",CCNc1cccc2ccccc21,305,578.15
"4,4'-DIPYRIDYL",c1c[n]ccc1-c1cc[n]cc1,305,578.15
3-Nitro-o-toluidine,Cc1c(N)cccc1[N+]([O-])=O,305,578.15
"9,10-DIHYDROANTHRACENE",C1c2ccccc2Cc2ccccc21,305,578.15
2-Naphthalenecarbonyl chloride,O=C(Cl)c1cc2ccccc2cc1,305,578.15
2-(Dimethylamino)naphthalene,CN(C)c1cc2ccccc2cc1,305,578.15
"2,2'-DINITRO-BIPHENYL",[O-][N+](=O)c1ccccc1-c1ccccc1[N+]([O-])=O,305,578.15
"CYCLOHEXANE, 1,1'-(1,4-BUTANEDIYL)BIS-",C1CCCCC1CCCCC1CCCCC1,305,578.15
BENZOPHENONE,O=C(c1ccccc1)c1ccccc1,305.4,578.55
"Propanenitrile, 3,3'-oxybis-",N#CCCOCCC#N,305.85,579
3-NITROANILINE,Nc1cc(ccc1)[N+]([O-])=O,306,579.15
"CARBONIC ACID, DIPHENYL ESTER",O=C(Oc1ccccc1)Oc1ccccc1,306,579.15
"2(3H)-Furanone, 4,5-dihydro-5-phenyl-",O=C1CCC(O1)c1ccccc1,306,579.15
"1-Naphthalenecarboxylic acid, 3,4-dihydro-",OC(=O)C1=CCCc2ccccc21,306,579.15
6-METHOXYQUINOLINE,COc1cc2ccc[n]c2cc1,306,579.15
"CYCLOHEXANE, 1,1'-(2-ETHYL-1,3-PROPANEDIYL)BIS-",CCC(CC1CCCCC1)CC1CCCCC1,306,579.15
N-BENZYLANILINE,C(Nc1ccccc1)c1ccccc1,306.5,579.65
"STILBENE (TRANS), STILBENE",c1ccccc1/C=C/c1ccccc1,306.75,579.9
"Octanoic acid, octyl ester",CCCCCCCC(=O)OCCCCCCCC,306.8,579.95
4-METHYLACETANILIDE,Cc1ccc(cc1)NC(C)=O,307,580.15
1-BROMO-N-TETRADECANE,CCCCCCCCCCCCCCBr,307,580.15
R-11,O=CC12CC=CCC1C1CC=CCC1O2,307,580.15
"1,3-Dithiolane-2-thione",S=C1SCCS1,307,580.15
B-ETHYL-B-NITROSTYRENE,CC/C(=C\c1ccccc1)/[N+]([O-])=O,307.5,580.65
"NONASILOXANE, EICOSAMETHYL-",C[Si](C)(C)O[Si](C)(C)O[Si](C)(C)O[Si](C)(C)O[Si](C)(C)O[Si](C)(C)O[Si](C)(C)O[Si](C)(C)O[Si](C)(C)C,307.5,580.65
8-CHLORO-2-NAPHTHOL,Oc1cc2c(Cl)cccc2cc1,307.5,580.65
PENTADECYLAMINE,CCCCCCCCCCCCCCCN,307.6,580.75
O-PHENOXYANILINE,Nc1ccccc1Oc1ccccc1,308,581.15
"2(1H)-PYRIDINONE, 4-METHYL-",CC1=CC(=O)NC=C1,308,581.15
Naphthalene-2-carboxylic acid ethyl ester,CCOC(=O)c1cc2ccccc2cc1,308.5,581.65
"1H-Indene, 2,3-dihydro-1,1,3-trimethyl-3-phenyl-",CC1(C)CC(C)(c2ccccc12)c1ccccc1,308.5,581.65
"1,2,3-TRIHYDROXYBENZENE",Oc1c(O)cccc1O,309,582.15
"BENZOIC ACID, 2-METHYLPHENYL ESTER",Cc1ccccc1OC(=O)c1ccccc1,309,582.15
HEPTACHLOR,ClC1(Cl)C2(Cl)C3C=CC(Cl)C3C1(Cl)C(Cl)=C2Cl,310,583.15
"BENZENE, 1,1',1''-(CHLOROMETHYLIDYNE)TRIS-",ClC(c1ccccc1)(c1ccccc1)c1ccccc1,310,583.15
"Naphthalene, 1,4-dibromo-",Brc1ccc(Br)c2ccccc12,310,583.15
4-BROMOBIPHENYL,Brc1ccc(cc1)-c1ccccc1,310,583.15
"P-AMINOBENZOIC ACID, ETHYL ESTER",CCOC(=O)c1ccc(N)cc1,310,583.15
4-HYDROXYBENZALDEHYDE,Oc1ccc(C=O)cc1,310,583.15
BENZALANILINE,C(=Nc1ccccc1)c1ccccc1,310,583.15
5-AMINOQUINOLINE,Nc1cccc2[n]cccc21,310,583.15
DIPHENYL DISULFIDE,c1ccccc1SSc1ccccc1,310,583.15
"1-NAPHTHALENECARBOXYLIC ACID, ETHYL ESTER",CCOC(=O)c1cccc2ccccc21,310,583.15
"BENZENEPROPANOL, .BETA.-PHENYL-",OCC(Cc1ccccc1)c1ccccc1,310,583.15
"1H-IMIDAZOLE, 1-(PHENYLMETHYL)-",C(c1ccccc1)[n]1c[n]cc1,310,583.15
"2,6-Dimethoxy-benzonitrile",COc1cccc(OC)c1C#N,310,583.15
4-BROMOPHENYL PHENYL ETHER,Brc1ccc(cc1)Oc1ccccc1,310.1,583.25
9H-XANTHENE,C1c2ccccc2Oc2ccccc21,311,584.15
"HEPTADECANE, 2-METHYL-",CCCCCCCCCCCCCCCC(C)C,311,584.15
"BENZENE, 1,1'-(3-METHYL-1-PROPENE-1,3-DIYL)BIS-",CC(/C=C\c1ccccc1)c1ccccc1,311,584.15
"3-AMINO-2,5-DICHLOROBENZOIC ACID",Nc1cc(Cl)cc(C(O)=O)c1Cl,312,585.15
(4-METHYLPHENYL)PHENYLDIAZENE,Cc1ccc(cc1)N=Nc1ccccc1,312,585.15
"1,2,4-Butanetriol",OCC(O)CCO,312,585.15
(4-Amino-phenyl)-acetonitrile,Nc1ccc(CC#N)cc1,312,585.15
"Phenol, 2-(phenylmethyl)-",Oc1ccccc1Cc1ccccc1,312,585.15
TRIDECANOIC ACID,CCCCCCCCCCCCC(O)=O,312.4,585.55
2-BENZOFURANCARBOXYLIC ACID,OC(=O)c1cc2ccccc2o1,312.5,585.65
M-NITROBENZAMIDE,NC(=O)c1cc(ccc1)[N+]([O-])=O,312.5,585.65
"1,2-Benzenediamine, N-phenyl-",Nc1ccccc1Nc1ccccc1,313,586.15
3-Methyl-4-acetylphenol,Cc1cc(O)ccc1C(C)=O,313,586.15
"5,6-Dichloro-isobenzofuran-1,3-dione",O=C1OC(=O)c2cc(Cl)c(Cl)cc12,313,586.15
"4,4'-Dichlorodiphenyl ether",Clc1ccc(cc1)Oc1ccc(Cl)cc1,313,586.15
CINMETHYLIN,"C[C@@]12CC[C@@](C[C@@H]1OCc1ccccc1C)(O2)C(C)C |o1:1,4,6|",313,586.15
PHENYL BENZOATE,O=C(Oc1ccccc1)c1ccccc1,314,587.15
Benzoic acid N'-phenyl-hydrazide,O=C(NNc1ccccc1)c1ccccc1,314,587.15
2-NITRONAPHTHALENE,[O-][N+](=O)c1cc2ccccc2cc1,314,587.15
Benzylidene-o-tolyl-amine,Cc1ccccc1N=Cc1ccccc1,314,587.15
2-HEXADECANOL,CCCCCCCCCCCCCCC(C)O,314,587.15
"2,4-DINITROCHLOROBENZENE",[O-][N+](=O)c1cc(ccc1Cl)[N+]([O-])=O,315,588.15
"1,3,5-TRINITROBENZENE",[O-][N+](=O)c1cc(cc(c1)[N+]([O-])=O)[N+]([O-])=O,315,588.15
"Benzene, 2-chloro-1,3-dinitro-",[O-][N+](=O)c1cccc(c1Cl)[N+]([O-])=O,315,588.15
"3,5-Dinitrotoluene",Cc1cc(cc(c1)[N+]([O-])=O)[N+]([O-])=O,315,588.15
"Benzenamine, 3-phenoxy-",Nc1cc(ccc1)Oc1ccccc1,315,588.15
"1,4-Piperazinedicarboxylic acid, diethyl ester",CCOC(=O)N1CCN(CC1)C(=O)OCC,315,588.15
4-BENZOYLPYRIDINE,O=C(c1ccccc1)c1cc[n]cc1,315,588.15
"Benzoic acid, 4-methylphenyl ester",Cc1ccc(cc1)OC(=O)c1ccccc1,316,589.15
3-METHYL DIPHENYL AMINE,Cc1cc(ccc1)Nc1ccccc1,316,589.15
1-PHENYLUNDECANE,CCCCCCCCCCCc1ccccc1,316,589.15
OCTADECANE,CCCCCCCCCCCCCCCCCC,316.3,589.45
2-(Ethylamino)naphthalene,CCNc1cc2ccccc2cc1,316.5,589.65
PHENYL-A-PYRIDYLKETONE,O=C(c1cccc[n]1)c1ccccc1,317,590.15
3-Methylphenyl phenyl ketone,Cc1cc(ccc1)C(=O)c1ccccc1,317,590.15
"4,4'-DICHLOROBIPHENYL",Clc1ccc(cc1)-c1ccc(Cl)cc1,317,590.15
DIPROPYL PHTHALATE,CCCOC(=O)c1ccccc1C(=O)OCCC,317.5,590.65
"P-CYANO-N,N-DIMETHYLANILINE",CN(C)c1ccc(cc1)C#N,318,591.15
ANTIPYRINE,CN1C(C)=CC(=O)N1c1ccccc1,319,592.15
2-Nitrobiphenyl,[O-][N+](=O)c1ccccc1-c1ccccc1,320,593.15
2-PHENYLACETOPHENONE,O=C(Cc1ccccc1)c1ccccc1,320,593.15
"Cyclohexanamine, 4,4'-methylenebis-",NC1CCC(CC2CCC(N)CC2)CC1,320,593.15
"2,2'-BIPHENOL",Oc1ccccc1-c1ccccc1O,320,593.15
"3,3'-DICHLOROBIPHENYL",Clc1cc(ccc1)-c1cc(Cl)ccc1,320,593.15
2-HEPTADECANONE,CCCCCCCCCCCCCCCC(C)=O,320,593.15
DDE,CC(c1ccc(Cl)cc1)c1ccc(Cl)cc1,320,593.15
"PIPERIDINE, 1-BENZOYL-",O=C(c1ccccc1)N1CCCCC1,320.5,593.65
4-HYDROXYDIPHENYLMETHANE,Oc1ccc(Cc2ccccc2)cc1,322,595.15
1-BROMOPENTADECANE,CCCCCCCCCCCCCCCBr,322,595.15
"Pyridine, 4-(3-phenylpropyl)-",C(CCc1ccccc1)c1cc[n]cc1,322,595.15
N-HEXYLNAPHTHALENE,CCCCCCc1cccc2ccccc21,322,595.15
1-CHLOROHEXADECANE,CCCCCCCCCCCCCCCCCl,322,595.15
N-HEXADECYLAMINE,CCCCCCCCCCCCCCCCN,322.5,595.65
"Undecasiloxane, tetracosamethyl-",C[Si](C)(C)O[Si](C)(C)O[Si](C)(C)O[Si](C)(C)O[Si](C)(C)O[Si](C)(C)O[Si](C)(C)O[Si](C)(C)O[Si](C)(C)O[Si](C)(C)O[Si](C)(C)C,322.8,595.95
BENZYL BENZOATE,O=C(OCc1ccccc1)c1ccccc1,323.5,596.65
"NAPHTHALENE, 2-HEXYL-",CCCCCCc1cc2ccccc2cc1,324,597.15
"2,4-DB",OC(=O)CCCOc1ccc(Cl)cc1Cl,324.35,597.5
L-SPARTEINE,C1[C@@H]2C[C@@H](CN3CCCC[C@@H]32)[C@@H]2CCCCN21,325,598.15
Galaxolide,CC1(C)C(C)C(C)(C)c2cc3COCC(C)c3cc12,325,598.15
"CYCLOHEXANE, 1,1'-(1,5-PENTANEDIYL)BIS-",C1CCCCC1CCCCCC1CCCCC1,325,598.15
"METHANE, TRICYCLOHEXYL-",C1CCCCC1C(C1CCCCC1)C1CCCCC1,325.5,598.65
"THIOPHENE, TETRABROMO-",Brc1c(Br)[s]c(Br)c1Br,326,599.15
TETRADECANOIC ACID,CCCCCCCCCCCCCC(O)=O,326.2,599.35
3-ACETAMINOPYRIDINE,CC(=O)Nc1ccc[n]c1,326.5,599.65
"1H-CARBAZOLE, 2,3,4,9-TETRAHYDRO-",C1CCCc2[nH]c3ccccc3c21,327.5,600.65
PENTACHLORONITROBENZENE,[O-][N+](=O)c1c(Cl)c(Cl)c(Cl)c(Cl)c1Cl,328,601.15
EICOSANOIC ACID,CCCCCCCCCCCCCCCCCCCC(O)=O,328,601.15
"Cyclopentadecanone, 3-methyl-",CC1CC(=O)CCCCCCCCCCCC1,329,602.15
"1,2,3,5-TETRABROMOBENZENE",Brc1cc(Br)c(Br)c(Br)c1,329,602.15
"Piperidine, 4,4'-(1,3-propanediyl)bis-",C(CCC1CCNCC1)C1CCNCC1,329,602.15
1-NONADECENE,CCCCCCCCCCCCCCCCCC=C,329,602.15
"1,5-Naphthylene di-isocyanate",O=C=Nc1cccc2c1cccc2N=C=O,329.85,603
NONADECANE,CCCCCCCCCCCCCCCCCCC,329.9,603.05
DIELDRIN,"ClC1(Cl)[C@@]2(Cl)[C@@H]3[C@@H]4C[C@@H]([C@H]5O[C@H]54)[C@@H]3[C@]1(Cl)C(Cl)=C2Cl |o1:3,5,6,8,9,11,12,13|",330,603.15
TRI-2-CHLOROETHYL PHOSPHATE,O=P(OCCCl)(OCCCl)OCCCl,330,603.15
"PHENOL, 4-(PHENYLAMINO)-",Oc1ccc(cc1)Nc1ccccc1,330,603.15
"Butanedioic acid, diphenyl ester",O=C(CCC(=O)Oc1ccccc1)Oc1ccccc1,330,603.15
PENDIMETHALIN,Cc1c(c(NC(CC)CC)c(cc1C)[N+]([O-])=O)[N+]([O-])=O,330,603.15
ERYTHRITOL,O[C@H](CO)[C@@H](O)CO,330.5,603.65
AURAMINE,CN(C)c1ccc(cc1)C(=N)c1ccc(cc1)N(C)C,330.5,603.65
"Benzenamine, 4-methyl-N-(4-methylphenyl)-",Cc1ccc(cc1)Nc1ccc(C)cc1,330.5,603.65
"BENZENE, 1,1'-OXYBIS[2-METHOXY-",COc1ccccc1Oc1ccccc1OC,330.5,603.65
DIBENZYL KETONE,O=C(Cc1ccccc1)Cc1ccccc1,331,604.15
"Benzenamine, N,N'-methanetetraylbis-",c1ccccc1N=C=Nc1ccccc1,331,604.15
DODECYLCYCLOHEXANE,CCCCCCCCCCCCC1CCCCC1,331,604.15
DIMETHYL TRIDECANEDIOATE,COC(=O)CCCCCCCCCCCC(=O)OC,331.9,605.05
O-TERPHENYL,c1ccccc1-c1ccccc1-c1ccccc1,332,605.15
DINOSEB,CCC(C)c1cc(cc(c1O)[N+]([O-])=O)[N+]([O-])=O,332,605.15
4-NITROANILINE,Nc1ccc(cc1)[N+]([O-])=O,332,605.15
"Methanone, (4-chlorophenyl)phenyl-",O=C(c1ccccc1)c1ccc(Cl)cc1,332,605.15
"2H-1-BENZOPYRAN, 3,4-DIHYDRO-2-PHENYL-",C1CC(Oc2ccccc21)c1ccccc1,332,605.15
DIBENZOTHIOPHENE,c1cccc2[s]c3ccccc3c21,332.5,605.65
"Butanoic acid, 3-methyl-, 1,2,3-propanetriyl est",CC(C)CC(=O)OC(COC(=O)CC(C)C)COC(=O)CC(C)C,332.5,605.65
P-CHLOROACETANILIDE,CC(=O)Nc1ccc(Cl)cc1,333,606.15
Hexadecanenitrile,CCCCCCCCCCCCCCCC#N,333,606.15
"METHANONE, BIS(2-HYDROXYPHENYL)-",Oc1ccccc1C(=O)c1ccccc1O,333,606.15
"1H-Pyrazol-5-amine, 3-methyl-1-phenyl-",Cc1cc(N)[n]([n]1)-c1ccccc1,333,606.15
HEPTADECYL ALCOHOL,CCCCCCCCCCCCCCCCCO,333,606.15
"2,4-DINITROANILINE",Nc1ccc(cc1[N+]([O-])=O)[N+]([O-])=O,333.6,606.75
4-HEXYLRESORCINOL,CCCCCCc1ccc(O)cc1O,334,607.15
"NAPHTHALENE, 1-PHENYL-",c1ccccc1-c1cccc2ccccc21,334,607.15
"Methanone, bis(4-methylphenyl)-",Cc1ccc(cc1)C(=O)c1ccc(C)cc1,334,607.15
Dichloromethylpentachlorobenzene,ClC(Cl)c1c(Cl)c(Cl)c(Cl)c(Cl)c1Cl,334,607.15
1-HEXADECANETHIOL,CCCCCCCCCCCCCCCCS,334,607.15
1-HEXADECANOL,CCCCCCCCCCCCCCCCO,334,607.15
O-PHENYLENE CARBAMATE,O=C1Nc2ccccc2O1,335,608.15
"Phenol, 4-(1-methyl-1-phenylethyl)-",CC(C)(c1ccccc1)c1ccc(O)cc1,335,608.15
"ACENAPHTHYLENE, 5-BROMO-1,2-DIHYDRO-",Brc1ccc2CCc3cccc1c23,335,608.15
"2(3H)-BENZOTHIAZOLETHIONE, 3-METHYL-",CN1C(=S)Sc2ccccc12,335,608.15
TRIETHANOLAMINE,OCCN(CCO)CCO,335.4,608.55
"P,P'-DDE",ClC(Cl)=C(c1ccc(Cl)cc1)c1ccc(Cl)cc1,336,609.15
1-BROMOHEXADECANE,CCCCCCCCCCCCCCCCBr,336,609.15
"1,2,3-TRIAMINOBENZENE",Nc1c(N)cccc1N,336,609.15
1-Heptadecanamine,CCCCCCCCCCCCCCCCCN,336,609.15
HEXANEDIOIC ACID,OC(=O)CCCCC(O)=O,337.5,610.65
"Formamide, N,N-diphenyl-",O=CN(c1ccccc1)c1ccccc1,337.5,610.65
"2,3-DIHYDRO-1H-ISOINDOL-1-ONE",O=C1NCc2ccccc21,338,611.15
2-(2-HYDROXYPHENYL)BENZOXAZOLE,Oc1ccccc1-c1[n]c2ccccc2o1,338,611.15
BENZO(H)QUINOLINE,c1cccc2ccc3ccc[n]c3c21,339,612.15
"OXAZOLE, 2,4-DIPHENYL-",c1oc([n]c1-c1ccccc1)-c1ccccc1,339,612.15
"Benzene, 1,1'-oxybis 4-bromo-",Brc1ccc(cc1)Oc1ccc(Br)cc1,339,612.15
"ETHANOL, 2,2'- (4-METHYLPHENYL)IMINO BIS-",Cc1ccc(cc1)N(CCO)CCO,339,612.15
PENTADECANOIC ACID,CCCCCCCCCCCCCCC(O)=O,339.1,612.25
ANTHRACENE,c1c2ccccc2cc2ccccc21,339.9,613.05
DIBUTYL PHTHALATE,CCCCOC(=O)c1ccccc1C(=O)OCCCC,340,613.15
PHENANTHRENE,c1cc2ccccc2c2ccccc21,340,613.15
P-NITROBIPHENYL,[O-][N+](=O)c1ccc(cc1)-c1ccccc1,340,613.15
"Phenol, 3-(phenylamino)-",Oc1cc(ccc1)Nc1ccccc1,340,613.15
BIS(METHOXYETHYL)PHTHALATE,COCCOC(=O)c1ccccc1C(=O)OCCOC,340,613.15
"1H-IMIDAZOLE, 2-PHENYL-",c1ccccc1-c1[nH]cc[n]1,340,613.15
1-EICOSYNE,CCCCCCCCCCCCCCCCCCC#C,340,613.15
(4-METHOXYPHENYL)PHENYLDIAZENE,COc1ccc(cc1)N=Nc1ccccc1,340,613.15
1-EICOSENE,CCCCCCCCCCCCCCCCCCC=C,341,614.15
TETRAETHYLENEPENTAMINE,NCCNCCNCCNCCN,341.5,614.65
FLUORENONE,O=C1c2ccccc2-c2ccccc21,341.5,614.65
PIMELIC ACID,OC(=O)CCCCCC(O)=O,342,615.15
DI-N-AMYL PHTHALATE,CCCCCOC(=O)c1ccccc1C(=O)OCCCCC,342,615.15
3-(2-Ethyl-butoxy)-propionic acid,CCC(COCCC(O)=O)CC,343,616.15
"[1,1'-BIPHENYL]-2-CARBOXYLIC ACID",OC(=O)c1ccccc1-c1ccccc1,343.5,616.65
"BENZOIN, DL-BENZOIN",OC(C(=O)c1ccccc1)c1ccccc1,344,617.15
"Silane, ethoxytriphenyl-",CCO[Si](c1ccccc1)(c1ccccc1)c1ccccc1,344,617.15
DIBUTYL SEBACATE,CCCCOC(=O)CCCCCCCCC(=O)OCCCC,344.5,617.65
"1,2-Benzenedicarboxylic acid, bis(2-ethoxyethyl)",CCOCCOC(=O)c1ccccc1C(=O)OCCOCC,345,618.15
DESMETRYNE,CNc1[n]c([n]c(NC(C)C)[n]1)SC,345,618.15
ACRIDINE,c1c2ccccc2[n]c2ccccc21,345.5,618.65
"NAPHTHALENE, 2-PHENYL-",c1c(ccc2ccccc21)-c1ccccc1,345.5,618.65
1-PHENYLTRIDECANE,CCCCCCCCCCCCCc1ccccc1,346,619.15
N-TRIDECYLCYCLOHEXANE,CCCCCCCCCCCCCC1CCCCC1,346,619.15
BENZALACETOPHENONE,O=C(/C=C/c1ccccc1)c1ccccc1,346.5,619.65
OCTADECYLAMINE,CCCCCCCCCCCCCCCCCCN,346.8,619.95
Acridan,C1c2ccccc2Nc2ccccc21,347,620.15
BENZIL,O=C(c1ccccc1)C(=O)c1ccccc1,347,620.15
IMAZALIL BASE,C=CCOC(C[n]1c[n]cc1)c1ccc(Cl)cc1Cl,347,620.15
ETHYLENETHIOUREA,S=C1NCCN1,347.18,620.33
1-CHLOROOCTADECANE,CCCCCCCCCCCCCCCCCCCl,348,621.15
PHENANTHRIDINE,c1[n]c2ccccc2c2ccccc21,349,622.15
Heptadecanenitrile,CCCCCCCCCCCCCCCCC#N,349,622.15
"P,P'-DDD",ClC(Cl)C(c1ccc(Cl)cc1)c1ccc(Cl)cc1,350,623.15
"METHANONE, (4-BROMOPHENYL)PHENYL-",O=C(c1ccccc1)c1ccc(Br)cc1,350,623.15
1H-BENZOTRIAZOLE,c1cccc2[nH][n][n]c21,350,623.15
"Tetracosane, 2,6,10,15,19,23-hexamethyl-",CC(C)CCCC(C)CCCC(C)CCCCC(C)CCCC(C)CCCC(C)C,350,623.15
"NAPHTHALENE, 1-(PHENYLMETHYL)-",C(c1cccc2ccccc21)c1ccccc1,350,623.15
"NAPHTHALENE, 2-(PHENYLMETHYL)-",C(c1cc2ccccc2cc1)c1ccccc1,350,623.15
3-METHYLPHENANTHRENE,Cc1cc2c3ccccc3ccc2cc1,350,623.15
"1H-BENZIMIDAZOLE, 2,5-DIMETHYL-",Cc1cc2[nH]c(C)[n]c2cc1,350,623.15
9H-XANTHEN-9-ONE,O=C1c2ccccc2Oc2ccccc21,351,624.15
"BENZOIC ACID, 2-BENZOYL-, METHYL ESTER",COC(=O)c1ccccc1C(=O)c1ccccc1,351,624.15
PROPANIL,CCC(=O)Nc1cc(Cl)c(Cl)cc1,351,624.15
BENZO(F)QUINOLINE,c1cccc2c3ccc[n]c3ccc21,352,625.15
"3-PENTANONE, 1,5-DIPHENYL-",O=C(CCc1ccccc1)CCc1ccccc1,352,625.15
"Chrysene, octadecahydro-",C1CC2C3CCCCC3CCC2C2CCCCC21,353,626.15
OXYCHLORDANE,"ClC1(Cl)[C@@]2(Cl)[C@H]3[C@H]([C@@H]4O[C@]4(Cl)[C@@H]3Cl)[C@]1(Cl)C(Cl)=C2Cl |o1:3,5,6,7,9,13,&1:11|",353,626.15
CARBAZOLE,c1cccc2[nH]c3ccccc3c21,354.7,627.85
"METHANONE, (4-METHOXYPHENYL)PHENYL-",COc1ccc(cc1)C(=O)c1ccccc1,355,628.15
2-PHENYLACETANILIDE,CC(=O)Nc1ccccc1-c1ccccc1,355,628.15
O-PHENOXYBENZOIC ACID,OC(=O)c1ccccc1Oc1ccccc1,355,628.15
"3,3'-DIMETHOXYBENZIDINE",COc1cc(ccc1N)-c1cc(OC)c(N)cc1,356,629.15
HENEICOSANE,CCCCCCCCCCCCCCCCCCCCC,356.5,629.65
"4,4'-DIBROMOBIPHENYL",Brc1ccc(cc1)-c1ccc(Br)cc1,357.5,630.65
OXYFLUORFEN,CCOc1cc(ccc1[N+]([O-])=O)Oc1ccc(cc1Cl)C(F)(F)F,358.2,631.35
CHOLESTEROL,CC(C)CCC[C@@H](C)[C@H]1CC[C@H]2[C@@H]3CC=C4C[C@@H](O)CC[C@]4(C)[C@H]3CC[C@]12C,360,633.15
"9,10-PHENANTHRENEDIONE",O=C1c2ccccc2-c2ccccc2C1=O,360,633.15
"OXAZOLE, 2,5-DIPHENYL-",c1[n]c(oc1-c1ccccc1)-c1ccccc1,360,633.15
"Phosphorous acid, triphenyl ester",c1ccccc1OP(Oc1ccccc1)Oc1ccccc1,360,633.15
OLEIC ACID,CCCCCCCC/C=C\CCCCCCCC(O)=O,360,633.15
6-HDROXYQUINOLINE,Oc1cc2ccc[n]c2cc1,360,633.15
"N,N-Diphenyl ethylcarbamate",CCOC(=O)N(c1ccccc1)c1ccccc1,360,633.15
S-ORTHOPHENYLENETHIOCARBAMATE,Oc1[n]c2ccccc2[s]1,360,633.15
N-TETRADECYLCYCLOHEXANE,CCCCCCCCCCCCCCC1CCCCC1,360,633.15
"4,4'-THIODIANILINE",Nc1ccc(cc1)Sc1ccc(N)cc1,361,634.15
"1H-Isoindole-1,3(2H)-dione, 2-methyl-5-nitro-",CN1C(=O)c2cc(ccc2C1=O)[N+]([O-])=O,361,634.15
Octadecanenitrile,CCCCCCCCCCCCCCCCCC#N,362,635.15
Methyl Abietate,CC(C)C1CC[C@H]2C(C=1)=CC[C@H]1[C@@](C)(CCC[C@]21C)C(=O)OC,362.5,635.65
m-TERPHENYL,c1c(cccc1-c1ccccc1)-c1ccccc1,363,636.15
"2,4'-Biphenyldiamine",Nc1ccc(cc1)-c1ccccc1N,363,636.15
2-PHENYLQUINOLINE,c1cc([n]c2ccccc21)-c1ccccc1,363,636.15
THIANTHRENE,c1cccc2Sc3ccccc3Sc21,365,638.15
TRIPHENYLAMINE,c1ccccc1N(c1ccccc1)c1ccccc1,365,638.15
3-METHYLCARBAZOLE,Cc1cc2c(cc1)[nH]c1ccccc21,365,638.15
LINOLEIC ACID,CCCCC/C=C\C/C=C\CCCCCCCC(O)=O,365.2,638.35
P-PHENYLAZOANILINE,Nc1ccc(cc1)/N=N/c1ccccc1,366,639.15
TRI(N-OCTYL)AMINE,CCCCCCCCN(CCCCCCCC)CCCCCCCC,366,639.15
1-N-NONYLNAPHTHALENE,CCCCCCCCCc1cccc2ccccc21,366,639.15
1-Docosene,CCCCCCCCCCCCCCCCCCCCC=C,367,640.15
"3,3'-DICHLOROBENZIDINE",Nc1ccc(cc1Cl)-c1cc(Cl)c(N)cc1,368,641.15
DOCOSANE,CCCCCCCCCCCCCCCCCCCCCC,368.6,641.75
BUTYL BENZYL PHTHALATE,CCCCOC(=O)c1ccccc1C(=O)OCc1ccccc1,370,643.15
"Benzeneacetic acid, (4-methoxyphenyl)methyl este",COc1ccc(COC(=O)Cc2ccccc2)cc1,370,643.15
METHYL STEARATE,CCCCCCCCCCCCCCCCCC(=O)OC,370,643.15
BENEFIN,CCCCN(CC)c1c(cc(cc1[N+]([O-])=O)C(F)(F)F)[N+]([O-])=O,370,643.15
2-PHENYLBENZTHIAZOLE,c1ccccc1-c1[n]c2ccccc2[s]1,371,644.15
2-N-NONYLNAPHTHALENE,CCCCCCCCCc1cc2ccccc2cc1,372,645.15
N-PENTADECYLCYCLOHEXANE,CCCCCCCCCCCCCCCC1CCCCC1,373,646.15
"1,2-Dimethyltetrabromobenzene",Cc1c(Br)c(Br)c(Br)c(Br)c1C,374.5,647.65
2-ETHYLHEXYL DIPHENYL PHOSPHATE,CCC(COP(=O)(Oc1ccccc1)Oc1ccccc1)CCCC,375,648.15
"1,1':4',1''-TERPHENYL",c1cc(ccc1-c1ccccc1)-c1ccccc1,376,649.15
"4,4'-METHYLENEBIS(2-CHLOROANILINE)",Nc1ccc(Cc2cc(Cl)c(N)cc2)cc1Cl,378.9,652.05
TRIPHENYLCARBINOL,OC(c1ccccc1)(c1ccccc1)c1ccccc1,380,653.15
TRICOSANE,CCCCCCCCCCCCCCCCCCCCCCC,380,653.15
STEARIC ACID,CCCCCCCCCCCCCCCCCC(O)=O,383,656.15
1-IODOOCTADECANE,CCCCCCCCCCCCCCCCCCI,383,656.15
BIS(2-ETHYLHEXYL) TEREPHTHALATE,CCCCC(COC(=O)c1ccc(cc1)C(=O)OCC(CCCC)CC)CC,383,656.15
BIS(2-ETHYLHEXYL)PHTHALATE,CCCCC(COC(=O)c1ccccc1C(=O)OCC(CCCC)CC)CC,384,657.15
FLUORANTHENE,c1ccc2c3c(cccc31)-c1ccccc1-2,384,657.15
"Benzenemethanamine, N,N-bis(phenylmethyl)-",C(c1ccccc1)N(Cc1ccccc1)Cc1ccccc1,385,658.15
N-HEXADECYLBENZENE,CCCCCCCCCCCCCCCCc1ccccc1,385,658.15
1-CYCLOHEXYLHEXADECANE,CCCCCCCCCCCCCCCCC1CCCCC1,385,658.15
BIS(4-DIMETHYLAMINOPHENYL)METHANE,CN(C)c1ccc(Cc2ccc(cc2)N(C)C)cc1,390,663.15
"PHENANTHRENE, 1-METHYL-7-(1-METHYLETHYL)-",Cc1cccc2c1ccc1cc(ccc12)C(C)C,390,663.15
TRIMELLITIC ANHYDRIDE,OC(=O)c1cc2c(cc1)C(=O)OC2=O,390,663.15
TETRACOSANE,CCCCCCCCCCCCCCCCCCCCCCCC,391.3,664.45
Bis-(4-bromo-phenyl)-methanone,O=C(c1ccc(Br)cc1)c1ccc(Br)cc1,395,668.15
N-PHENYL-2-NAPHTHYLAMINE,c1c(ccc2ccccc21)Nc1ccccc1,395.5,668.65
"PEROXIDE, BIS(1-METHYL-1-PHENYLETHYL)",CC(C)(OOC(C)(C)c1ccccc1)c1ccccc1,396,669.15
"Benzene, heptadecyl-",CCCCCCCCCCCCCCCCCc1ccccc1,397,670.15
DI-(P-AMINOPHENYL)METHANE,Nc1ccc(Cc2ccc(N)cc2)cc1,398,671.15
N-PHENYLSUCCINIMIDE,O=C1CCC(=O)N1c1ccccc1,400,673.15
BENZIDINE,Nc1ccc(cc1)-c1ccc(N)cc1,401,674.15
PENTACOSANE,CCCCCCCCCCCCCCCCCCCCCCCCC,401.9,675.05
9-Phenyl-acridine,c1ccccc1-c1c2ccccc2[n]c2ccccc21,404,677.15
11H-BENZO(A)FLUORENE,C1c2c3ccccc3ccc2-c2ccccc21,405,678.15
"Benzene, 1,1'-sulfonylbis 4-methyl-",Cc1ccc(cc1)S(=O)(=O)c1ccc(C)cc1,406,679.15
"Benzene, octadecyl-",CCCCCCCCCCCCCCCCCCc1ccccc1,408,681.15
"Cyclohexane, octadecyl-",CCCCCCCCCCCCCCCCCCC1CCCCC1,409,682.15