NAME,SMILES,BP_C,BP_K
3-METHYL-3-ETHYLPENTANE,CC(CC)(CC)CC,118.2,391.35
tert-Butyl Propionate,CCC(=O)OC(C)(C)C,118.25,391.4
CYCLOHEPTANE,C1CCCCCC1,118.4,391.55
"2,3-DIMETHYL-2-BUTANOL",CC(C)C(C)(C)O,118.4,391.55
"Propanoic acid, 2,2-dimethyl-, ethyl ester",CCOC(=O)C(C)(C)C,118.4,391.55
1-Ethyl-5-methylfuran,Cc1ccc(CC)o1,118.5,391.65
3-ETHYLHEXANE,CCCC(CC)CC,118.6,391.75
CHLOROACETONE,CC(=O)CCl,119,392.15
METHYL ISOTHIOCYANATE,CN=C=S,119,392.15
"SILANE, TRIMETHYLPHENOXY-",C[Si](C)(C)Oc1ccccc1,119,392.15
"3-BUTENOIC ACID, ETHYL ESTER",CCOC(=O)CC=C,119,392.15
2-PENTANOL,CCCC(C)O,119.3,392.45
"1,2-DIETHOXYETHANE",CCOCCOCC,119.4,392.55
"2-Butenoic acid, methyl ester, (E)-, 2-BUTENOIC ACID, METHYL ESTER, (Z)-",C/C=C/C(=O)OC,119.5,392.65
"1,1-DIMETHYL CYCLOHEXANE",CC1(C)CCCCC1,119.6,392.75
2-METHYLPIPERIDINE,C[C@@H]1CCCCN1,120,393.15
DIBROMOCHLOROMETHANE,ClC(Br)Br,120,393.15
TRIETHYL BORATE,CCOB(OCC)OCC,120,393.15
"Acetic acid, fluoro-, ethyl ester",CCOC(=O)CF,120,393.15
"1,1-DICHLOROPROPANONE",CC(=O)C(Cl)Cl,120,393.15
ETHYL PROPYNOATE,CCOC(=O)C#C,120,393.15
2-ETHYL-1-HEXENE,CCCCC(=C)CC,120,393.15
"BUTANE, 1-ISOCYANO-",[C-]#[N+]CCCC,120,393.15
"2,4-DIMETHYL-3-THIAPENTANE",CC(C)SC(C)C,120.1,393.25
"2-BUTENENITRILE, E-, CROTONONITRILE",CC=CC#N,120.25,393.4
1-BROMO-3-METHYLBUTANE,CC(C)CCBr,120.4,393.55
METHYL PENTYNOL,CCC(C)(O)C#C,120.5,393.65
"1,3-CYCLOHEPTADIENE",C1CCC=CC=C1,120.5,393.65
ISOPROPYL ISOBUTYRATE,CC(C)C(=O)OC(C)C,120.7,393.85
TETRAHYDROTHIOPHENE,C1CCCS1,121,394.15
"N,N,N',N'-TETRAME ETHYLENEDIAMINE",CN(C)CCN(C)C,121,394.15
"Butanoic acid, heptafluoro-",OC(=O)C(F)(F)C(F)(F)C(F)(F)F,121,394.15
"Silicic acid (H4SiO4), tetramethyl ester",CO[Si](OC)(OC)OC,121,394.15
"CYCLOPENTANE, 1-ETHYL-3-METHYL-, TRANS-, CYCLOPENTANE, 1-ETHYL-3-METHYL-, CIS-",C[C@H]1CC[C@@H](C1)CC,121,394.15
(Trimethylsilyl)methanol,C[Si](C)(C)CO,121,394.15
"FURAN, TETRAHYDRO-2,2,4,4-TETRAMETHYL-",CC1(C)COC(C)(C)C1,121,394.15
"3-HEPTENE, 4-METHYL-",CCC=C(C)CCC,121,394.15
"3-Hexenal, (Z)-",CCC=CCC=O,121,394.15
"PENTANAL, 3-METHYL-",CC[C@H](C)CC=O,121,394.15
1-IODO-2-METHYLPROPANE,CC(C)CI,121.1,394.25
"2-Buten-1-ol, (E)-",CC=CCO,121.2,394.35
TETRACHLOROETHENE,ClC(Cl)=C(Cl)Cl,121.3,394.45
ETHYLBUTYRATE,CCOC(=O)CCC,121.5,394.65
"Silane, dichloro(chloromethyl)methyl-",C[Si](Cl)(Cl)CCl,121.5,394.65
Dichlorodintromethane,[O-][N+](=O)C(Cl)(Cl)[N+]([O-])=O,121.5,394.65
"Butane, 1-bromo-2-methyl-, (S)-",CC[C@H](C)CBr,121.6,394.75
"CYCLOPENTANE, 1-ETHYL-1-METHYL-",CCC1(C)CCCC1,121.6,394.75
"Acetic acid, chlorodifluoro-",OC(=O)C(F)(F)Cl,122,395.15
"OXIRANE, 2-(CHLOROMETHYL)-2-METHYL-",CC1(CCl)CO1,122,395.15
"CYCLOHEXANE, 1-METHYL-4-METHYLENE-",CC1CCC(=C)CC1,122,395.15
"ISOXAZOLE, 5-METHYL-",Cc1cc[n]o1,122,395.15
"3-PENTEN-2-ONE, 3-PENTEN-2-ONE, (E)-",CC=CC(C)=O,122.25,395.4
"1,3-DIMETHYLCYCLOHEXANE, 1,3-DIMETHYLCYCLOHEXANE (CIS), 1,3-DIMETHYLCYCLOHEXANE (TRANS)",CC1CC(C)CCC1,122.37,395.5166667
3-METHYL-3-PENTANOL,CC(O)(CC)CC,122.4,395.55
"THIOPHENE, 2,5-DIHYDRO-",C1C=CCS1,122.4,395.55
N-PROPYLPROPIONATE,CCC(=O)OCCC,122.5,395.65
2-CHLOROHEXANE,CCCCC(C)Cl,122.5,395.65
"Methane, chloronitro-",[O-][N+](=O)CCl,122.5,395.65
2-METHYL-2-HEPTENE,CCCCC=C(C)C,122.6,395.75
"Propane, 1,1-diethoxy-",CCC(OCC)OCC,123,396.15
"3-OCTENE, (Z)-, 3-OCTENE, (E)-",CC/C=C\CCCC,123.1,396.25
ISOBUTYL NITRATE,CC(C)CO[N+]([O-])=O,123.4,396.55
ISOAMYL FORMATE,CC(C)CCOC=O,123.5,396.65
PROPYLTRICHLOROSILANE,CCC[Si](Cl)(Cl)Cl,123.5,396.65
"1,1-DICHLORO-1-NITROETHANE",CC(Cl)(Cl)[N+]([O-])=O,123.5,396.65
"Cyclopropanemethanol, .alpha.-methyl-",C[C@@H](O)C1CC1,123.5,396.65
"1-PROPENE, 3,3-DIETHOXY-",CCOC(C=C)OCC,123.5,396.65
PYRIMIDINE,c1[n]ccc[n]1,123.8,396.95
2-OCTENE,CC=CCCCCC,124,397.15
"NITRIC ACID, 1-METHYLPROPYL ESTER",CCC(C)O[N+]([O-])=O,124,397.15
"Propanoic acid, 2-propenyl ester",CCC(=O)OCC=C,124,397.15
Cyclobutanol,OC1CCC1,124,397.15
"2,2,5-TRIMETHYLHEXANE",CC(C)CCC(C)(C)C,124,397.15
2-METHOXYETHANOL,COCCO,124.1,397.25
"1,2-DICHLOROBUTANE",CCC(Cl)CCl,124.1,397.25
ISOMESITYL OXIDE,CC(=O)CC(C)=C,124.2,397.35
PARALDEHYDE,CC1OC(C)OC(C)O1,124.3,397.45
Ethyl trimethoxy silane,CC[Si](OC)(OC)OC,124.3,397.45
"2-Propanol, 1-(dimethylamino)-",CC(O)CN(C)C,124.5,397.65
"BUTANE, 2-IODO-2-METHYL-",CCC(C)(C)I,124.5,397.65
"ETHANE, 1-CHLORO-1-NITRO-",CC(Cl)[N+]([O-])=O,124.5,397.65
"2,6-OCTADIENE",CC=CCCC=CC,124.5,397.65
"CYCLOPENTANE, 1-ETHYL-2-METHYL-, CIS-, 1-METHYL-2-ETHYLCYCLOPENTANE (TRANS)",C[C@@H]1CCC[C@H]1CC,124.6,397.75
"Perfluoro-1,3,5-trimethylcyclohexane",FC(F)(F)C1(F)C(F)(F)C(F)(C(F)(F)C(F)(C1(F)F)C(F)(F)F)C(F)(F)F,125,398.15
"4,4,4-TRIFLUORO-1-BUTANOL",OCCCC(F)(F)F,125,398.15
HEXAMETHYLDISILIZANE,C[Si](C)(C)N[Si](C)(C)C,125,398.15
"2,6-DIFLUOROPYRIDINE",Fc1cccc(F)[n]1,125,398.15
"HYDRAZINE, 1,2-BIS(1-METHYLETHYL)-",CC(C)NNC(C)C,125,398.15
ISOPROPYL METHACRYLATE,CC(=C)C(=O)OC(C)C,125,398.15
BICYCLO(4.1.0)HEPT-3-ENE,C1C2CC=CCC21,125,398.15
2-METHYLBUTYRONITRILE,CCC(C)C#N,125,398.15
Selenium carbide,[Se]=C=[Se],125.5,398.65
"1-Pentene, 5-bromo-",C=CCCCBr,125.5,398.65
"4-PENTEN-2-OL, 3-METHYL-",CC(C=C)C(C)O,125.5,398.65
"2,3,5,6-Tetrafluorotoluene",Cc1c(F)c(F)cc(F)c1F,125.5,398.65
OCTANE,CCCCCCCC,125.6,398.75
"3-PENTANONE, 2,2-DIMETHYL-",CCC(=O)C(C)(C)C,125.6,398.75
"4-OCTENE, 4-OCTENE, (Z)-",CCC/C=C/CCC,125.75,398.9
"1,2-DIMETHYLCYCLOHEXANE, 1,2-DIMETHYLCYCLOHEXANE (CIS), 1,2-DIMETHYLCYCLOHEXANE (TRANS)",CC1CCCCC1C,125.77,398.9166667
DIETHYL CARBONATE,CCOC(=O)OCC,126,399.15
CHLOROACETONITRILE,N#CCCl,126,399.15
"2-PENTANONE, 4,4-DIMETHYL-",CC(=O)CC(C)(C)C,126,399.15
"Pentane, 3-(chloromethyl)-",CCC(CCl)CC,126,399.15
sec-Butyl Chloroformate,CCC(C)OC(=O)Cl,126,399.15
TETRANITROMETHANE,[O-][N+](=O)C([N+]([O-])=O)([N+]([O-])=O)[N+]([O-])=O,126.1,399.25
DIKETENE,C=C1CC(=O)O1,126.1,399.25
"Hexane, 1-methoxy-",CCCCCCOC,126.1,399.25
1-OCTYNE,CCCCCCC#C,126.3,399.45
2-METHYL-3-PENTANOL,CC(C)[C@@H](O)CC,126.5,399.65
ISOPROPYLCYCLOPENTANE,CC(C)C1CCCC1,126.5,399.65
"2-Propanamine, N-ethyl-N-(1-methylethyl)-",CCN(C(C)C)C(C)C,126.5,399.65
"2,2,4-TRIMETHYLHEXANE",CCC(C)CC(C)(C)C,126.5,399.65
4-HEXEN-2-ONE,CC=CCC(C)=O,127,400.15
2-METHYL-2-NITROPROPANE,CC(C)(C)[N+]([O-])=O,127.16,400.31
METHYL VALERATE,CCCCC(=O)OC,127.4,400.55
"Ethane, 2-chloro-1,1-dimethoxy-",COC(CCl)OC,127.5,400.65
"Ethane, 1-bromo-2-ethoxy-",CCOCCBr,127.5,400.65
"BUTANENITRILE, 3-METHYL-",CC(C)CC#N,127.5,400.65
3-Nitropropene,C=CC[N+]([O-])=O,127.5,400.65
3-FLUOROPROPANOL,OCCCF,127.8,400.95
4-VINYLCYCLOHEXENE,C=CC1CC=CCC1,128,401.15
MORPHOLINE,C1COCCN1,128,401.15
"CYCLOHEXANE, ETHENYL-",C=CC1CCCCC1,128,401.15
2-CHLOROTHIOPHENE,Clc1ccc[s]1,128.3,401.45
"2-Propanol, 1-chloro-2-methyl-",CC(C)(O)CCl,128.5,401.65
2-CHLOROETHANOL,OCCCl,128.6,401.75
"1,2-Ethanediamine, N-ethyl-",CCNCCN,129,402.15
"Acetic acid, chlorofluoro-, ethyl ester",CCOC(=O)C(F)Cl,129,402.15
"BUTANE, 2,3-DICHLORO-2-METHYL-",CC(Cl)C(C)(C)Cl,129,402.15
3-Butyn-1-ol,C#CCCO,129,402.15
"Methanamine, 1,1-diethoxy-N,N-dimethyl-",CN(C)C(OCC)OCC,129,402.15
4-Methyl-pent-4-en-2-ol,CC(O)CC(C)=C,129,402.15
"BENZENE, 1-METHYL-4-(TRIFLUOROMETHYL)-",Cc1ccc(cc1)C(F)(F)F,129,402.15
METHYL CHLOROACETATE,COC(=O)CCl,129.5,402.65
1-HEXEN-5-ONE,CC(=O)CCC=C,129.5,402.65
"1H-PYRROLE, 1-ETHYL-",CC[n]1cccc1,129.5,402.65
PYRROLE,c1ccc[nH]1,129.7,402.85
1-BROMOPENTANE,CCCCCBr,129.8,402.95
MESITYL OXIDE,CC(C)=CC(C)=O,130,403.15
"1-Propanamine, 1,1,2,2,3,3,3-heptafluoro-N,N-bis",FC(F)(F)C(F)(F)C(F)(F)N(C(F)(F)C(F)(F)C(F)(F)F)C(F)(F)C(F)(F)C(F)(F)F,130,403.15
P-CHLOROFLUOROBENZENE,Fc1ccc(Cl)cc1,130,403.15
"1-PROPANOL, 2-METHOXY-",COC(C)CO,130,403.15
"3,4-Hexanedione",CCC(=O)C(=O)CC,130,403.15
"Butanoyl chloride, 3,3-dimethyl-",CC(C)(C)CC(=O)Cl,130,403.15
3-CHLOROPROPANAL,O=CCCCl,130,403.15
"Pentane, 3-bromo-3-methyl-",CC(Br)(CC)CC,130,403.15
Tetra(ethene)silane,C=C[Si](C=C)(C=C)C=C,130.2,403.35
CYCLOPENTANONE,O=C1CCCC1,130.5,403.65
2-PENTANOL ACETATE,CCCC(C)OC(C)=O,130.5,403.65
"BUTANOIC ACID, 1-METHYLETHYL ESTER",CCCC(=O)OC(C)C,130.5,403.65
N-BUTYL IODIDE,CCCCI,130.6,403.75
"2,4,4-TRIMETHYLHEXANE",CCC(C)(C)CC(C)C,130.7,403.85
"PIPERIDINE, 1-ETHYL-",CCN1CCCCC1,130.8,403.95
HEXANAL,CCCCCC=O,131,404.15
"Butane, 2,2,3,3-tetrachlorohexafluoro-",FC(F)(F)C(Cl)(Cl)C(Cl)(Cl)C(F)(F)F,131,404.15
"2,3,3,-TRIMETHYL-2-BUTANOL",CC(C)(C)C(C)(C)O,131,404.15
1-ETHOXY-2-PROPANOL,CCOCC(C)O,131,404.15
"ACETIC ACID, METHOXY-, METHYL ESTER",COC(=O)COC,131,404.15
"Silane, (bromomethyl)chlorodimethyl-",C[Si](C)(Cl)CBr,131,404.15
ISOPENTANOL,CC(C)CCO,131.1,404.25
"2,3,5-TRIMETHYLHEXANE",CC(C)C(C)CC(C)C,131.4,404.55
7-Oxabicyclo 4.1.0 heptane,C1CCCC2OC21,131.5,404.65
ETHYL ISOTHIOCYANATE,CCN=C=S,131.5,404.65
Propionaldehyde oxime,CCC=NO,131.5,404.65
"1,1,3-TRICHLOROPROPENE",ClCC=C(Cl)Cl,131.5,404.65
4-METHYL-2-PENTANOL,CC(C)CC(C)O,131.6,404.75
4-OCTYNE,CCCC#CCCC,131.6,404.75
ETHYLCYCLOHEXANE,CCC1CCCCC1,131.9,405.05
ISOBUTYL ACRYLATE,CC(C)COC(=O)C=C,132,405.15
dichloroiodomethane,ClC(Cl)I,132,405.15
"1,1,2-TRICHLOROPROPANE",CC(Cl)C(Cl)Cl,132,405.15
3-METHYL-3-BUTEN-1-OL,CC(=C)CCO,132,405.15
"2,2-Dimethyl-butyryl chloride",CCC(C)(C)C(=O)Cl,132,405.15
2-Bromo-propionyl chloride,C[C@@H](Br)C(=O)Cl,132,405.15
"Furan, 2-(methoxymethyl)-",COCc1ccco1,132,405.15
"PROPANE, 1-[(1-METHYLETHYL)THIO]-",CCCSC(C)C,132.1,405.25
"2,2,3,3-Tetrafluoropropyl acrylate",C=CC(=O)OCC(F)(F)C(F)F,132.5,405.65
"Propanoic acid, 2-chloro-, methyl ester",COC(=O)C(C)Cl,132.5,405.65
"4,4,4-TRIFLUORO-2-METHYL-1-BUTANOL",CC(CO)CC(F)(F)F,132.5,405.65
"2,2-DIMETHYLHEPTANE",CCCCCC(C)(C)C,132.7,405.85
METHYL THIOCYANATE,CSC#N,132.9,406.05
"HEPTANE, 2,4-DIMETHYL-",CC(C)CC(C)CCC,132.9,406.05
"1,3-Propanediamine, N,N-dimethyl-",CN(C)CCCN,133,406.15
"Acetic acid, difluoro-",OC(=O)C(F)F,133,406.15
"PROPANOIC ACID, 1-METHYLPROPYL ESTER",CC(CC)OC(=O)CC,133,406.15
"2-PROPANONE, (1-METHYLETHYLIDENE)HYDRAZONE",CC(C)=NN=C(C)C,133,406.15
"CYCLOHEXANE, METHOXY-",COC1CCCCC1,133,406.15
"2,2,3,4-TETRAMETHYLPENTANE",CC(C)C(C)C(C)(C)C,133,406.15
DIETHYLHYDROXYLAMINE,CCN(O)CC,133,406.15
"2,4-DIMETHYL-2-PENTANOL",CC(C)CC(C)(C)O,133.1,406.25
3-OCTYNE,CCC#CCCCC,133.1,406.25
2-CHLORO-1-PROPANOL,CC(Cl)CO,133.5,406.65
"1,1-dibromopropane",CCC(Br)Br,133.5,406.65
CYCLOPENTANECARBOXALDEHYDE,O=CC1CCCC1,133.5,406.65
Triethoxysilane,CCO[SiH](OCC)OCC,133.5,406.65
"2,2,3-TRIMETHYLHEXANE",CCCC(C)C(C)(C)C,133.6,406.75
"HEXANE, 4-ETHYL-2-METHYL-",CC(C)CC(CC)CC,133.8,406.95
"2,2-DIMETHYL-3-ETHYLPENTANE",CC(C)(C)C(CC)CC,133.8,406.95
"2-BUTENAL, 3-METHYL-",CC(C)=CC=O,134,407.15
2-DIMETHYLAMINOETHANOL,CN(C)CCO,134,407.15
CYCLOHEXANAMINE,NC1CCCCC1,134,407.15
HEXAMETHYLCYCLOTRISILOXANE,C[Si]1(C)O[Si](C)(C)O[Si](C)(C)O1,134,407.15
"2,2,3,3-Tetrafluropropionic acid",OC(=O)C(F)(F)C(F)F,134,407.15
Chlorosulfuric acid methyl ester,COS(=O)(=O)Cl,134,407.15
2-ETHYLTHIOPHENE,CCc1ccc[s]1,134,407.15
"1-PENTYN-3-OL, 3,4-DIMETHYL-",CC(C)C(C)(O)C#C,134,407.15
"THIOPHENE, TETRAHYDRO-2-METHYL-",CC1CCCS1,134,407.15
"CYCLOHEPTANE, METHYL-",CC1CCCCCC1,134,407.15
Cyclopropanecarboxylic acid ethyl ester,CCOC(=O)C1CC1,134,407.15
1-HEXEN-3-OL,CCCC(O)C=C,134,407.15
"SILANE, 1,2-ETHYNEDIYLBIS[TRIMETHYL-",C[Si](C)(C)C#C[Si](C)(C)C,134,407.15
"1,2-Ethanediamine, N'-ethyl-N,N-dimethyl-",CCNCCN(C)C,134.5,407.65
"Cyclotetrasiloxane, 2,4,6,8-tetramethyl-",C[SiH]1O[SiH](C)O[SiH](C)O[SiH](C)O1,134.5,407.65
4-METHYL-3-HEXANONE,CC(CC)C(=O)CC,134.5,407.65
3-HEXANOL,CC[C@H](O)CCC,134.75,407.9
"4-Octyne-3,6-diol, 3,6-dimethyl-",CC(O)(CC)C#CC(C)(O)CC,135,408.15
ETHYL ISOVALERATE,CCOC(=O)CC(C)C,135,408.15
2-Ethoxyethanol,CCOCCO,135,408.15
pentachlorofluoroethane,FC(Cl)(Cl)C(Cl)(Cl)Cl,135,408.15
1-Bromo-4-fluorobutane,FCCCCBr,135,408.15
1-CHLOROHEXANE,CCCCCCCl,135,408.15
"3-HEXANONE, 5-METHYL-",CCC(=O)CC(C)C,135,408.15
"2-Butanamine, N-(1-methylpropyl)-",CC(CC)NC(C)CC,135,408.15
ALPHA-EPIBROMOHYDRIN,BrCC1CO1,135,408.15
"2,2-DIMETHYL-3-PENTANOL",CCC(O)C(C)(C)C,135,408.15
2-Methyl-3-hexanone,CCCC(=O)C(C)C,135,408.15
CYCLOPROPANECARBONITRILE,N#CC1CC1,135.1,408.25
"HEPTANE, 4,4-DIMETHYL-",CC(C)(CCC)CCC,135.2,408.35
"HEPTANE, 2,6-DIMETHYL-",CC(C)CCCC(C)C,135.2,408.35
PROPYL ISOBUTYRATE,CCCOC(=O)C(C)C,135.4,408.55
"PROPANOIC ACID, 2-OXO-, METHYL ESTER",CC(=O)C(=O)OC,135.5,408.65
"1,7-Octadiyne",C#CCCCCC#C,135.5,408.65
"2-PROPANONE, OXIME",CC(C)=NO,136,409.15
2-HEXANOL,CCCCC(C)O,136,409.15
2-CYCLOPENTEN-1-ONE,O=C1CCC=C1,136,409.15
"CYCLOHEXANE, ETHYLIDENE-",CC=C1CCCCC1,136,409.15
1-Hydroxy-1-methylcyclopentane,CC1(O)CCCC1,136,409.15
"THIOPHENE, 3-ETHYL-",CCc1c[s]cc1,136,409.15
"PROPANE, 1,3-DICHLORO-2-METHYL-",CC(CCl)CCl,136.4,409.55
"2-Pentenal, 2-methyl-",CC(C=O)=CCC,136.5,409.65
"2-Butenoic acid, 3-methyl-, methyl ester",CC(C)=CC(=O)OC,136.5,409.65
"2,4-Pentadienenitrile",C=CC=CC#N,136.5,409.65
2-METHYLPYRAZINE,Cc1c[n]cc[n]1,137,410.15
BROMOPENTAFLUOROBENZENE,Fc1c(F)c(F)c(Br)c(F)c1F,137,410.15
2-METHYLPROPYL PROPANOATE,CCC(=O)OCC(C)C,137,410.15
"BUTANOIC ACID, 2-ETHYL-, METHYL ESTER",COC(=O)C(CC)CC,137,410.15
"3,3-Dimethylpiperidine",CC1(C)CNCCC1,137,410.15
"CYCLOHEXENE, 1-ETHYL-",CCC1CCCCC=1,137,410.15
"Propanoic acid, 2-hydroxy-2-methyl-, methyl este",COC(=O)C(C)(C)O,137,410.15
ETHYL CHLOROGLYOXYLATE,CCOC(=O)C(=O)Cl,137,410.15
"2-Butenoic acid, ethyl ester, (E)-, 2-Butenoic acid, ethyl ester",C/C=C/C(=O)OCC,137.25,410.4
"HEPTANE, 3,3-DIMETHYL-",CCCCC(C)(C)CC,137.3,410.45
"Cyclopentane, bromo-",BrC1CCCC1,137.5,410.65
"2-BUTANONE, 1-CHLORO-",CCC(=O)CCl,137.5,410.65
"Acetonitrile, (dimethylamino)",CN(C)CC#N,137.5,410.65
1-Isopropoxy-2-propanol,CC(C)OCC(C)O,137.5,410.65
2-OCTYNE,CC#CCCCCC,137.6,410.75
1-PENTANOL,CCCCCO,137.9,411.05
HEXAMETHYLENEIMINE,C1CCCCCN1,138,411.15
"2,4-PENTANEDIONE",CC(=O)CC(C)=O,138,411.15
1-BROMO-2-PROPANONE,CC(=O)CBr,138,411.15
Cyclooctene,C1CCCCCC=C1,138,411.15
"2-Penten-1-ol, (Z)-, 2-PENTEN-1-OL, (E)-",CC/C=C\CO,138,411.15
"CYCLOHEXENE, 1,2-DIMETHYL-",CC1CCCCC=1C,138,411.15
2-(CHLOROMETHYL)-3-CHLORO-1-PROPENE,C=C(CCl)CCl,138,411.15
"2,3,5,6-Tetrafluoroanisole",COc1c(F)c(F)cc(F)c1F,138,411.15
"Disiloxane, 1,3-dichloro-1,1,3,3-tetramethyl-",C[Si](C)(Cl)O[Si](C)(C)Cl,138,411.15
"PYRIMIDINE, 2-METHYL-",Cc1[n]ccc[n]1,138,411.15
"1-PENTYN-3-OL, 3-ETHYL-",CCC(O)(CC)C#C,138,411.15
"2,3-Hexanedione, 5-methyl-",CC(=O)C(=O)CC(C)C,138,411.15
"HEXANE, 3-ETHYL-2-METHYL-",CC(C)C(CCC)CC,138,411.15
"2,4-HEPTADIENE, 2,4-DIMETHYL-",CC(C)=CC(C)=CCC,138,411.15
P-XYLENE,Cc1ccc(C)cc1,138.3,411.45
4-(TRIFLUOROMETHYL)CHLOROBENZENE,FC(F)(F)c1ccc(Cl)cc1,138.5,411.65
4-ETHYLMORPHOLINE,CCN1CCOCC1,138.5,411.65
Triethylarsine,CC[As](CC)CC,138.5,411.65
4-Hexen-3-one,CC=CC(=O)CC,138.5,411.65
DIALLYL SULFIDE,C=CCSCC=C,138.6,411.75
"2-BUTANOL, 3-CHLORO-",CC(Cl)C(C)O,139,412.15
"Pentane, 2,3-dichloro-",CC(Cl)C(Cl)CC,139,412.15
5-HEXEN-2-OL,CC(O)CCC=C,139,412.15
"2-Butenoic acid, 2-methyl-, methyl ester, (E)-",C/C(=C\C)/C(=O)OC,139,412.15
"3,3-Diethoxy-propyne",CCOC(C#C)OCC,139,412.15
"2,3,4-TRIMETHYLHEXANE",CC(C)C(C)C(C)CC,139.1,412.25
ACETIC ANHYDRIDE,CC(=O)OC(C)=O,139.5,412.65
"1,3-Butanediamine",CC(N)CCN,139.5,412.65
2-NITROBUTANE,CCC(C)[N+]([O-])=O,139.5,412.65
"Cyclopentanone, 2-methyl-",CC1CCCC1=O,139.5,412.65
4-Heptanamine,CCCC(N)CCC,139.5,412.65
DIISOBUTYLAMINE,CC(C)CNCC(C)C,139.6,412.75
"1,3-PROPANEDIAMINE",NCCCN,139.8,412.95
"Ethanamine, 2,2-dimethoxy-N-methyl-",CNCC(OC)OC,140,413.15
BENZYL FLUORIDE,FCc1ccccc1,140,413.15
"2-Buten-1-ol, 3-methyl-",CC(C)=CCO,140,413.15
"Propane, 2-isothiocyanato-2-methyl-",CC(C)(C)N=C=S,140,413.15
3-HEXEN-2-ONE,CCC=CC(C)=O,140,413.15
"2,3,5,6-TETRAFLUOR-PHENOL",Oc1c(F)c(F)cc(F)c1F,140,413.15
"HEXANE, 3-ETHYL-4-METHYL-",CC(CC)C(CC)CC,140,413.15
TRIISOPROPYL BORATE,CC(C)OB(OC(C)C)OC(C)C,140,413.15
Trimethylsilyl Triflate,C[Si](C)(C)OS(=O)(=O)C(F)(F)F,140,413.15
"2,2,3,3-TETRAMETHYLPENTANE",CC(C)(C)C(C)(C)CC,140.2,413.35
"1-Pentanol, 2,2,3,3,4,4,5,5-octafluoro-",OCC(F)(F)C(F)(F)C(F)(F)C(F)F,140.5,413.65
"Propane, 1,1'- methylenebis(oxy) bis-",CCCOCOCCC,140.5,413.65
"BICYCLO[2.2.1]HEPT-2-ENE, 2,3-DIMETHYL-",CC1C2CC(CC2)C=1C,140.5,413.65
ISONITROBUTANE,CC(C)C[N+]([O-])=O,140.5,413.65
"1,3,5,7-CYCLOOCTATETRAENE",C1C=CC=CC=CC=1,140.5,413.65
"HEPTANE, 2,3-DIMETHYL-",CC(C)C(C)CCCC,140.5,413.65
"3,3,4-TRIMETHYLHEXANE",CC(CC)C(C)(C)CC,140.5,413.65
2-Ethoxy-1-propanol,CCOC(C)CO,140.5,413.65
"HEPTANE, 3,4-DIMETHYL-",CC(CC)C(C)CCC,140.6,413.75
"Ethane, 1,1'-[oxybis(methyleneoxy)]bis-",CCOCOCOCC,140.6,413.75
"6,6,6-Trifluoro-3-hexanol",CCC(O)CCC(F)(F)F,140.65,413.8
"THIOPHENE, 2,4-DIMETHYL-",Cc1c[s]c(C)c1,140.7,413.85
"2-(2,2-Dimethyl-propyl)-2-methyl-oxirane",CC(C)(C)CC1(C)CO1,140.9,414.05
Perflubron,FC(F)(F)C(F)(F)C(F)(F)C(F)(F)C(F)(F)C(F)(F)C(F)(F)C(F)(F)Br,141,414.15
"2,3-DIBROMO-1-PROPENE",C=C(Br)CBr,141,414.15
"2-BUTANOL, 1-CHLORO-",CCC(O)CCl,141,414.15
"CIS,TRANS-1,3,5-TRIMETHYLCYCLOHEXANE",CC1CC(C)CC(C)C1,141,414.15
PROPIONIC ACID,CCC(O)=O,141.1,414.25
"HEPTANE, 4-ETHYL-",CCC(CCC)CCC,141.2,414.35
VALERONITRILE,CCCCC#N,141.3,414.45
"2,3,3,4-TETRAMETHYLPENTANE",CC(C)(C(C)C)C(C)C,141.5,414.65
"THIOPHENE, 2,3-DIMETHYL-",Cc1cc[s]c1C,141.6,414.75
TETRAHYDRO-2H-THIOPYRAN,C1CCCCS1,141.8,414.95
"1,2-DIBROMOPROPANE",CC(Br)CBr,141.9,415.05
"1,2,3-TRICHLOROPROPENE",ClCC(Cl)=CCl,142,415.15
1-HEXYN-3-OL,CCCC(O)C#C,142,415.15
2-Heptanamine,CCCCCC(C)N,142,415.15
"Naphthalene, octadecafluorodecahydro-",FC1(F)C2(F)C(F)(C(F)(F)C(F)(F)C1(F)F)C(F)(F)C(F)(F)C(F)(F)C2(F)F,142,415.15
CHLOROCYCLOHEXANE,ClC1CCCCC1,142,415.15
"Carbonochloridic acid, butyl ester",CCCCOC(=O)Cl,142,415.15
3-ETHYL-3-PENTANOL,CCC(O)(CC)CC,142,415.15
1-Chloro-1-nitropropane,CCC(Cl)[N+]([O-])=O,142,415.15
2-METHOXYPYRIDINE,COc1cccc[n]1,142,415.15
"CYCLOHEXANE, 1,2,3-TRIMETHYL-",CC1C(C)CCCC1C,142,415.15
2-HEXANETHIOL,CCCCC(C)S,142,415.15
Methyl triethoxy silane,C[Si](OCC)(OCC)OCC,142,415.15
"Hexane, 3-bromo-",CCC(Br)CCC,142,415.15
"ACETIC ACID, METHOXY-, ETHYL ESTER",COCC(=O)OCC,142,415.15
Tetrahydro-furan-2-carbaldehyde,O=CC1CCCO1,142,415.15
Diallyl Carbonate,C=CCOC(=O)OCC=C,142,415.15
"Butanoic acid, 3-methyl-, 1-methylethyl ester",CC(C)OC(=O)CC(C)C,142,415.15
"THIOPHENE, TETRAHYDRO-2,5-DIMETHYL-, CIS-",C[C@@H]1CC[C@@H](C)S1,142.3,415.45
4-METHYLOCTANE,CC(CCC)CCCC,142.4,415.55
ISOAMYL ACETATE,CC(C)CCOC(C)=O,142.5,415.65
"Pentane, 2-bromo-2-methyl-",CCCC(C)(C)Br,142.5,415.65
"1,8-Nonadiene",C=CCCCCCC=C,142.5,415.65
(1-Methyl-piperidin-3-yl)-methanol,CN1CC(CO)CCC1,142.5,415.65
"Propanoic acid, 3-methoxy-, methyl ester",COCCC(=O)OC,142.8,415.95
DI-N-PROPYLSULFIDE,CCCSCCC,142.9,416.05
N-PROPYLBUTYRATE,CCCOC(=O)CCC,143,416.15
2-METHOXYETHYL ACETATE,COCCOC(C)=O,143,416.15
ETHYL ORTHOFORMATE,CCOC(OCC)OCC,143,416.15
ACETOIN,CC(O)C(C)=O,143,416.15
ETHYNYL BENZENE,C#Cc1ccccc1,143,416.15
3-METHYL-3-HEXANOL,CC[C@@](C)(O)CCC,143,416.15
3-Methylpyrrole,Cc1c[nH]cc1,143,416.15
"3,3-DIMETHYL-1-BUTANOL",CC(C)(C)CCO,143,416.15
2-METHYL-2-HEXANOL,CCCCC(C)(C)O,143,416.15
Pentafluorothiophenol,Fc1c(F)c(F)c(S)c(F)c1F,143,416.15
"HEXANE, 1-(ETHENYLOXY)-",CCCCCCOC=C,143,416.15
"HEXANE, 1-ETHOXY-",CCCCCCOCC,143,416.15
"1,5-Heptadiene, 2,6-dimethyl-",CC(C)=CCCC(C)=C,143,416.15
"HEPTANE, 3-ETHYL-",CCCCC(CC)CC,143,416.15
"HEXANAL, 3-METHYL-",CCCC(C)CC=O,143,416.15
1-Chloro-5-fluoropentane,FCCCCCCl,143.2,416.35
2-METHYLOCTANE,CCCCCCC(C)C,143.2,416.35
1-CHLORO-3-BROMOPROPANE,ClCCCBr,143.3,416.45
"Silane, trichloro(2-methylpropyl)-",CC(C)C[Si](Cl)(Cl)Cl,143.3,416.45
"2,3,5,6-Tetrafluoro-p-xylene",Cc1c(F)c(F)c(C)c(F)c1F,143.5,416.65
1-Methylbutyl methyl ketone,CCCC(C)C(C)=O,143.5,416.65
5-METHYL-2-HEXANONE,CC(C)CCC(C)=O,144,417.15
"1,3-Propanediamine, N,N,N',N'-tetramethyl-",CN(C)CCCN(C)C,144,417.15
DI(N-PROPYL) KETONE,CCCC(=O)CCC,144,417.15
"1,2:3,4-DIEPOXYBUTANE DL, DIEPOXYBUTANE",C1O[C@@H]1[C@@H]1CO1,144,417.15
"Propanoyl chloride, 3-chloro-",O=C(Cl)CCCl,144,417.15
3-Chloroheptane,CCCCC(Cl)CC,144,417.15
2-BROMOHEXANE,CCCCC(C)Br,144,417.15
"Piperidine, 3,5-dimethyl-",CC1CNCC(C)C1,144,417.15
"2,6-LUTIDINE",Cc1cccc(C)[n]1,144.1,417.25
3-METHYLPYRIDINE,Cc1c[n]ccc1,144.1,417.25
3-METHYLOCTANE,CCCCCC(C)CC,144.2,417.35
ETHYL CHLOROACETATE,CCOC(=O)CCl,144.3,417.45
O-XYLENE,Cc1ccccc1C,144.5,417.65
"2-HEXANONE, 4-METHYL-",CCC(C)CC(C)=O,144.5,417.65
CHLOROTRIETHYLSILANE,CC[Si](Cl)(CC)CC,144.5,417.65