NAME,SMILES,BP_C,BP_K
Phenarsazine Chloride,Cl[As]1c2ccccc2Nc2ccccc12,410,683.15
HEXACOSANE,CCCCCCCCCCCCCCCCCCCCCCCCCC,412.2,685.35
TRIS(2-ETHYLHEXYL) TRIMELLITATE,CCCCC(COC(=O)c1ccc(cc1C(=O)OCC(CCCC)CC)C(=O)OCC(CCCC)CC)CC,414,687.15
DI-2-ETHYLHEXYL ADIPATE,CCCCC(COC(=O)CCCCC(=O)OCC(CCCC)CC)CC,417,690.15
9-PHENYLANTHRACENE,c1c2ccccc2c(c2ccccc21)-c1ccccc1,417,690.15
"SILICIC ACID (H4SIO4), TETRAPHENYL ESTER",c1ccccc1O[Si](Oc1ccccc1)(Oc1ccccc1)Oc1ccccc1,417,690.15
"BENZENE, 1,3,5-TRIMETHYL-2,4-DINITRO-",Cc1c(c(C)cc(C)c1[N+]([O-])=O)[N+]([O-])=O,418,691.15
"Silicic acid (H4SiO4), tetrakis(2-ethylhexyl) es",CCCCC(CO[Si](OCC(CCCC)CC)(OCC(CCCC)CC)OCC(CCCC)CC)CC,419,692.15
"Methanone, (1,1'-biphenyl)-4-ylphenyl-",O=C(c1ccccc1)c1ccc(cc1)-c1ccccc1,419.5,692.65
"Benzene, 1,1',1'',1'''-(1,2-ethenediylidene)tetr",c1ccccc1C(=C(c1ccccc1)c1ccccc1)c1ccccc1,420,693.15
"1,1':2',1'':2'',1'''-QUATERPHENYL",c1cccc(c1-c1ccccc1)-c1ccccc1-c1ccccc1,420,693.15
1-CYCLOPENTYLHENEICOSANE,CCCCCCCCCCCCCCCCCCCCCC1CCCC1,420,693.15
NONADECYLCYLOHEXANE,CCCCCCCCCCCCCCCCCCCC1CCCCC1,420,693.15
TRIPHENYLENE,c1cccc2c1c1ccccc1c1ccccc12,425,698.15
ALIZARINE,Oc1ccc2c(C(=O)c3ccccc3C2=O)c1O,430,703.15
Tetraphenylmethane,c1ccccc1C(c1ccccc1)(c1ccccc1)c1ccccc1,431,704.15
"Benzenamine, 4-(6-methyl-2-benzothiazolyl)-",Cc1cc2[s]c([n]c2cc1)-c1ccc(N)cc1,434,707.15
BENZ(A)ANTHRACENE,c1c2c3ccccc3ccc2cc2ccccc21,437.6,710.75
NONACOSANE,CCCCCCCCCCCCCCCCCCCCCCCCCCCCC,440.8,713.95
ISODECYLOCTYLPHTHALATE,CCCCCCCCOC(=O)c1ccccc1C(=O)OCCCCCCCC(C)C,447,720.15
7H-Benzo[c]carbazole,c1cccc2c3c(ccc21)[nH]c1ccccc13,448,721.15
"2,2'-BINAPHTHALENE",c1c(ccc2ccccc21)-c1cc2ccccc2cc1,452,725.15
HENTRIACONTANE,CCCCCCCCCCCCCCCCCCCCCCCCCCCCCCC,458,731.15
"5'-PHENYL-1,1':3',1-TERPHENYL",c1c(cc(cc1-c1ccccc1)-c1ccccc1)-c1ccccc1,462,735.15
DOTRIACONTANE,CCCCCCCCCCCCCCCCCCCCCCCCCCCCCCCC,467,740.15
"b,b'-Dinaphthylamine",c1c(ccc2ccccc21)Nc1cc2ccccc2cc1,471,744.15
4-NONYLPHENYL DIPHENYL PHOSPATE,CCCCCCCCCc1ccc(cc1)OP(=O)(Oc1ccccc1)Oc1ccccc1,471,744.15
HEXACHLOROPHENE,Oc1c(Cc2c(Cl)c(Cl)cc(Cl)c2O)c(Cl)c(Cl)cc1Cl,479,752.15
BENZO(K)FLUORANTHENE,c1c2-c3cccc4cccc(c43)-c2cc2ccccc21,480,753.15
N-TETRATRIACONTANE,CCCCCCCCCCCCCCCCCCCCCCCCCCCCCCCCCC,483,756.15
N-PENTATRIACONTANE,CCCCCCCCCCCCCCCCCCCCCCCCCCCCCCCCCCC,490,763.15
BENZO(A)PYRENE,c1c2ccccc2c2ccc3cccc4ccc1c2c34,495,768.15
N-HEPTATRIACONTANE,CCCCCCCCCCCCCCCCCCCCCCCCCCCCCCCCCCCCC,505,778.15
"1,2,3,4,6,7,8,9-OCTACHLORODIBENZO-P-DIOXIN",Clc1c2Oc3c(Oc2c(Cl)c(Cl)c1Cl)c(Cl)c(Cl)c(Cl)c3Cl,510,783.15
PICENE,c1cc2c(ccc3c4ccccc4ccc23)c2ccccc21,519,792.15
"1,2,3,4-DIBENZANTHRACENE",c1c2c3ccccc3c3ccccc3c2cc2ccccc21,524,797.15
CORONENE,c1cc2ccc3ccc4ccc5ccc6ccc1c1c6c5c4c3c21,525,798.15
DECABROMODIPHENYL ETHER,Brc1c(Oc2c(Br)c(Br)c(Br)c(Br)c2Br)c(Br)c(Br)c(Br)c1Br,530,803.15
TETRATETRACONTANE,CCCCCCCCCCCCCCCCCCCCCCCCCCCCCCCCCCCCCCCCCCCC,548,821.15