NAME,SMILES,BP_C,BP_K
"Propane, 1-chloro-2,2-dimethyl-",CC(C)(C)CCl,84.3,357.45
"2,3-DIMETHYL-1-PENTENE",CCC(C)C(C)=C,84.3,357.45
2-BUTANETHIOL,CCC(C)S,84.5,357.65
2-HEXYNE,CC#CCCC,84.5,357.65
"ETHENE, 1-BROMO-2-CHLORO-",ClC=CBr,84.6,357.75
FLUOROBENZENE,Fc1ccccc1,84.7,357.85
3-METHYL-2-THIABUTANE,CSC(C)C,84.8,357.95
ETHYLENE GLYCOL DIMETHYL ETHER,COCCOC,85,358.15
"1,5-HEXADIEN-3-YNE",C=CC#CC=C,85,358.15
"1-HEXENE, 5-METHYL-",CC(C)CCC=C,85.3,358.45
EPIFLUOROHYDRIN,FCC1CO1,85.5,358.65
"BUTANE, 2-CHLORO-2-METHYL-",CCC(C)(C)Cl,85.5,358.65
"1,4-CYCLOHEXADIENE",C1C=CCC=C1,85.5,358.65
"3-HEXENE, 2-METHYL-, (E)-",CC/C=C/C(C)C,85.9,359.05
"2H-PYRAN, 3,4-DIHYDRO-",C1CCOC=C1,86,359.15
"3,3-DIMETHYLPENTANE",CC(C)(CC)CC,86,359.15
"SILANE, TRIMETHYL-2-PROPENYL-",C[Si](C)(C)CC=C,86,359.15
Dimethylamino-trimethyl silane,CN(C)[Si](C)(C)C,86,359.15
METHYL-T-AMYL ETHER,CCC(C)(C)OC,86.3,359.45
PYRROLIDINE,C1CCCN1,86.5,359.65
"Furan, tetrahydro-3-methyl-",CC1COCC1,86.5,359.65
4-METHYL-1-HEXENE,CC[C@H](C)CC=C,86.7,359.85
"1-BUTENE, 1-CHLORO-3-METHYL-",CC(C)C=CCl,87,360.15
TRICHLOROETHENE,ClC=C(Cl)Cl,87.2,360.35
ETHYLNITRATE,CCO[N+]([O-])=O,87.2,360.35
METHYL HYDRAZINE,CNN,87.5,360.65
"1,1-DIMETHYLCYCLOPENTANE",CC1(C)CCCC1,87.5,360.65
"1,1,1,2,3,3-Hexafluoro-4-methoxybutane",COCC(F)(F)C(F)C(F)(F)F,87.5,360.65
"2-HEXENE, 4-METHYL-, (E)-",C/C=C/C(C)CC,87.6,360.75
TETRAHYDROPYRAN,C1CCCCO1,88,361.15
DIETHOXYMETHANE,CCOCOCC,88,361.15
"1,1,2-trichloro-1-fluoroethane",FC(Cl)(Cl)CCl,88,361.15
Chloromethyl-cyclopropane,ClCC1CC1,88,361.15
"3,3-Dimethoxy-propene",COC(C=C)OC,88,361.15
"CYCLOPENTENE, 4,4-DIMETHYL-",CC1(C)CC=CC1,88,361.15
"1-Butene, 2-bromo-",CCC(=C)Br,88,361.15
"4-CHLORO-1,2-BUTADIENE",C=C=CCCl,88,361.15
"1,1-Dichloropropane",CCC(Cl)Cl,88.1,361.25
"1,1,2-Trichloro-3,3,3-trifluoro-1-propene",FC(F)(F)C(Cl)=C(Cl)Cl,88.1,361.25
"2-HEXENE, 5-METHYL-, (E)-",CC=CCC(C)C,88.1,361.25
2-METHYL-1-PROPANETHIOL,CC(C)CS,88.5,361.65
"2-Propenenitrile, 2-chloro-",C=C(Cl)C#N,88.5,361.65
2-HEXEN-4-YNE,CC#CC=CC,88.5,361.65
ISOPROPYL ACETATE,CC(C)OC(C)=O,88.6,361.75
"PROPANE, 1,2-DICHLORO-2-FLUORO-",CC(F)(Cl)CCl,88.6,361.75
"1-Propyne, 3-bromo-",C#CCBr,89,362.15
P-DIFLUOROBENZENE,Fc1ccc(F)cc1,89,362.15
3-Pentanamine,CCC(N)CC,89,362.15
"SILANE, TRIMETHYLPROPYL-",CCC[Si](C)(C)C,89,362.15
"1-BUTENE, 2-ETHYL-3-METHYL-",CCC(=C)C(C)C,89,362.15
"BICYCLO(2.2.1)HEPTA-2,5-DIENE",C1C2C=CC1C=C2,89.5,362.65
"2,3-DIMETHYLPENTANE",CC(C)C(C)CC,89.7,362.85
BROMODICHLOROMETHANE,ClC(Cl)Br,90,363.15
DI(N-PROPYL) ETHER,CCCOCCC,90,363.15
"BENZENE, 1,2,4-TRIFLUORO-",Fc1cc(F)c(F)cc1,90,363.15
2-METHYLHEXANE,CCCCC(C)C,90,363.15
"Propanal, 2-chloro-2-methyl-",CC(C)(Cl)C=O,90,363.15
"BUTANE, 1-METHOXY-2-METHYL-",CCC(C)COC,90,363.15
"1,2,4,5-TETRAFLUOROBENZENE",Fc1cc(F)c(F)cc1F,90.2,363.35
METHACRYLONITRILE,CC(=C)C#N,90.3,363.45
"1H-Pyrrole, 2,5-dihydro-",C1C=CCN1,90.5,363.65
"Carbonic acid, dimethyl ester",COC(=O)OC,90.5,363.65
"Cyclopentene, 1,2-dichloro-3,3,4,4,5,5-hexafluor",FC1(F)C(F)(F)C(Cl)=C(Cl)C1(F)F,90.7,363.85
METHYLBUTYLAMINE,CCCCNC,91,364.15
3-METHYLHEXANE,CCC(C)CCC,91,364.15
"BUTANE, 1-METHOXY-3-METHYL-",COCCC(C)C,91,364.15
ALLYL PROPYL ETHER,CCCOCC=C,91,364.15
"Acrylic acid, vinyl ester (6CI,7CI,8CI)",C=CC(=O)OC=C,91,364.15
ISOBUTYL BROMIDE,CC(C)CBr,91.1,364.25
2-BROMOBUTANE,CCC(C)Br,91.2,364.35
VINYL PROPIONATE,CCC(=O)OC=C,91.2,364.35
VINYLTRICHLOROSILANE,C=C[Si](Cl)(Cl)Cl,91.5,364.65
"1,1,1,2-TETRACHLORO-2,2-DIFLUOROETHANE",FC(F)(Cl)C(Cl)(Cl)Cl,91.5,364.65
1-FLUOROHEXANE,CCCCCCF,91.5,364.65
"1-METHOXY-1,3-BUTADIENE",COC=CC=C,91.5,364.65
"Propanoyl chloride, 2-methyl-",CC(C)C(=O)Cl,92,365.15
"1,1-dibromoethene",C=C(Br)Br,92,365.15
2-PENTANAMINE,CCCC(C)N,92,365.15
"1-HEXYNE, 5-METHYL-",CC(C)CCC#C,92,365.15
2-ETHYLFURAN,CCc1ccco1,92,365.15
2-METHYL-1-HEXENE,CCCCC(C)=C,92,365.15
DIETHYLSULFIDE,CCSCC,92.1,365.25
BUTYL ETHYL ETHER,CCCCOCC,92.3,365.45
"PROPANENITRILE, 2-OXO-",CC(=O)C#N,92.3,365.45
METHYL ISOBUTYRATE,COC(=O)C(C)C,92.5,365.65
3-METHYL-1-BUTANAL,CC(C)CC=O,92.5,365.65
"Ethane, 1-chloro-2-methoxy-",COCCCl,92.5,365.65
"1,3-DIOXOLANE, 2,2-DIMETHYL-",CC1(C)OCCO1,92.5,365.65
"1,1,2,2,-TETRACHLORODIFLUOROETHANE",FC(Cl)(Cl)C(F)(Cl)Cl,93,366.15
Methyl Fluorosulfonate,COS(=O)(=O)F,93,366.15
Ethanethioic acid,CC(O)=S,93,366.15
"1,3-PENTADIENE, 2,4-DIMETHYL-",CC(C)=CC(C)=C,93.2,366.35
"1,4-Dimethyl-cyclopentene",CC1CC=C(C)C1,93.2,366.35
3-ETHYLPENTANE,CCC(CC)CC,93.5,366.65
"Phosphorochloridic acid, diethyl ester",CCOP(=O)(Cl)OCC,93.5,366.65
"Ethane, 1-chloro-1-ethoxy-",CCOC(C)Cl,93.5,366.65
"2,3-DICHLOROPROPENE",C=C(Cl)CCl,94,367.15
"1,2-DIFLUOROBENZENE",Fc1ccccc1F,94,367.15
ALLYL ETHER,C=CCOCC=C,94,367.15
"2,4-DIMETHYLFURAN",Cc1coc(C)c1,94,367.15
"1-BUTENE, 3-CHLORO-2-METHYL-",CC(Cl)C(C)=C,94,367.15
"1,4-DIOXIN, 2,3-DIHYDRO-",C1COC=CO1,94.1,367.25
"1,2,3,4-TETRAFLUOROBENZENE",Fc1ccc(F)c(F)c1F,94.3,367.45
3-METHYL-2-BUTANONE,CC(C)C(C)=O,94.3,367.45
"Pentane, undecafluoro-5-iodo-",FC(F)(F)C(F)(F)C(F)(F)C(F)(F)C(F)(F)I,94.4,367.55
"2,4,6-Trifluoropyridine",Fc1cc(F)[n]c(F)c1,94.5,367.65
"Ethanamine, 2-methoxy-",COCCN,95,368.15
THIACYCLOBUTANE,C1CCS1,95,368.15
"Butanoic acid, heptafluoro-, ethyl ester",CCOC(=O)C(F)(F)C(F)(F)C(F)(F)F,95,368.15
ETHYL CHLOROCARBONATE,CCOC(=O)Cl,95,368.15
DIMETHYLBUTYLAMINE,CCCCN(C)C,95,368.15
2-bromo-2-chloropropane,CC(C)(Cl)Br,95,368.15
ETHYL HYDROPEROXIDE,CCOO,95,368.15
2-Methyl-3-hexyne,CCC#CC(C)C,95.2,368.35
2-METHYL-2-HEXENE,CCCC=C(C)C,95.4,368.55
"1,2-DICHLOROPROPANE",CC(Cl)CCl,95.5,368.65
"2,2-DIFLUOROETHANOL",OCC(F)F,95.5,368.65
"2,4,6-Tris-(trifluoromethyl)-1,3,5-triazine",FC(F)(F)c1[n]c([n]c([n]1)C(F)(F)F)C(F)(F)F,95.5,368.65
"2-HEXENE, 3-METHYL-, (Z)-",CCC/C(/C)=C\C,95.6,368.75
"1-Butanamine, 3-methyl-",CC(C)CCN,96,369.15
BICYCLO[2.2.1]-2-HEPTENE,C1C2CCC1C=C2,96,369.15
3-ETHYL-2-PENTENE,CC=C(CC)CC,96,369.15
METHACRYLOYL CHLORIDE,CC(=C)C(=O)Cl,96,369.15
"2-BUTENE, 2-CHLORO-3-METHYL-",CC(C)=C(C)Cl,96,369.15
3-Buten-2-ol,C[C@H](O)C=C,96.5,369.65
"1-BUTENE, 1-CHLORO-2-METHYL-",CCC(C)=CCl,96.5,369.65
Isopropyl-propyl-amine,CCCNC(C)C,96.9,370.05
DIBROMOMETHANE,BrCBr,97,370.15
ALLYL ALCOHOL,C=CCO,97,370.15
1-PROPEN-2-OL ACETATE,CC(=O)OC(C)=C,97,370.15
"1,4-Dibromooctafluorobutane",FC(F)(Br)C(F)(F)C(F)(F)C(F)(F)Br,97,370.15
T-BUTYL ACETATE,CC(=O)OC(C)(C)C,97,370.15
"Formic acid, 1-methylpropyl ester",CCC(C)OC=O,97,370.15
PROPIONITRILE,CCC#N,97.1,370.25
1-PROPANOL,CCCO,97.2,370.35
3-CHLOROPENTANE,CCC(Cl)CC,97.5,370.65
"2,3-DIMETHYL-2-PENTENE",CC(C)=C(C)CC,97.5,370.65
TRICHLOROACETALDEHYDE,O=CC(Cl)(Cl)Cl,97.8,370.95
CHORAL HYDRATE,OC(O)C(Cl)(Cl)Cl,98,371.15
1-Bromo-tridecafluorohexane,FC(F)(F)C(F)(F)C(F)(F)C(F)(F)C(F)(F)C(F)(F)Br,98,371.15
"Borane, difluorophenyl-",FB(F)c1ccccc1,98,371.15
"2,4,6-Trifluoropyrimidine",Fc1[n]c(F)cc(F)[n]1,98,371.15
"3-Buten-2-one, 3-methyl-",CC(=O)C(C)=C,98,371.15
ISOBUTYL FORMATE,CC(C)COC=O,98.2,371.35
HEXAMETHYLDISILOXANE,C[Si](C)(C)O[Si](C)(C)C,99,372.15
"HYDRAZINE, 1,1-DIETHYL-",CCN(N)CC,99,372.15
2-CHLOROPENTANE,CCCC(C)Cl,99,372.15
"PENTANE, 1-METHOXY-",CCCCCOC,99,372.15
CYCLOBUTANONE,O=C1CCC1,99,372.15
"SILANE, ETHENYLETHOXYDIMETHYL-",CCO[Si](C)(C)C=C,99,372.15
"CYCLOPENTENE, 1,5-DIMETHYL-",CC1CCC=C1C,99,372.15
1-BROMO-1-BUTENE,CCC=CBr,99,372.15
2-METHYL-2-BUTANETHIOL,CCC(C)(C)S,99.1,372.25
"Nitrous acid, 3-methylbutyl ester",CC(C)CCON=O,99.2,372.35
ETHYL ACRYLATE,CCOC(=O)C=C,99.4,372.55
2-BUTANOL,CCC(C)O,99.5,372.65
"1-BUTENE, 4-BROMO-3-CHLORO-3,4,4-TRIFLUORO-",C=CC(F)(Cl)C(F)(F)Br,99.5,372.65
"3,3,3-TRIFLUORO-1-PROPANOL",OCCC(F)(F)F,99.5,372.65
1-HEPTYNE,CCCCCC#C,99.7,372.85
"2-BROMO-2-BUTENE, 2-BROMO-2-BUTENE (CIS)",CC=C(C)Br,99.75,372.9
"4,4,4-TRIFLUORO-2-BUTANOL",CC(O)CC(F)(F)F,99.85,373
"Propane, 2-iodo-2-methyl-",CC(C)(C)I,100.1,373.25
Diiodofluoromethane,FC(I)I,100.3,373.45
METHYL METHACRYLATE,CC(=C)C(=O)OC,100.5,373.65
ETHYLTRICHLOROSILANE,CC[Si](Cl)(Cl)Cl,100.5,373.65
"1,4-bis(trifluoromethyl)-decafluorocyclohexane",FC(F)(F)C1(F)C(F)(F)C(F)(F)C(F)(C(F)(F)C1(F)F)C(F)(F)F,100.5,373.65
1-METHYLCYCLOHEXANE,CC1CCCCC1,100.9,374.05
FORMIC ACID,OC=O,101,374.15
"Cyclohexane, fluoro-",FC1CCCCC1,101,374.15
NITROMETHANE,C[N+]([O-])=O,101.1,374.25
1-bromo-3-fluoropropane,FCCCBr,101.4,374.55
N-PROPYL ACETATE,CCCOC(C)=O,101.5,374.65
"1,4-DIOXANE",C1COCCO1,101.5,374.65
Trifluorophenyl silane,F[Si](F)(F)c1ccccc1,101.5,374.65
Trifluoromethyl-3-fluorobenzene,Fc1cccc(c1)C(F)(F)F,101.5,374.65
Butanoyl chloride,CCCC(=O)Cl,102,375.15
Perfluorobutyl ether,FC(F)(F)C(F)(F)C(F)(F)C(F)(F)OC(F)(F)C(F)(F)C(F)(F)C(F)(F)F,102,375.15
Perfluorodimethylcyclohexane,FC1(F)C(F)(C(F)(F)C(F)(F)C(F)(F)C1(F)C(F)(F)F)C(F)(F)F,102,375.15
"ETHANE, 1,1,2-TRICHLORO-2-FLUORO-",FC(Cl)C(Cl)Cl,102,375.15
TRIFLUOROMETHOXYBENZENE,FC(F)(F)Oc1ccccc1,102,375.15
Propionyl bromide,CCC(=O)Br,102,375.15
ETHYL(TERT-AMYL) ETHER,CC(C)(CC)OCC,102,375.15
"2,3,5,6-Tetrafluoropyridine",Fc1[n]c(F)c(F)cc1F,102,375.15
BENZOTRIFLUORIDE,FC(F)(F)c1ccccc1,102.1,375.25
"1,1-DIETHOXYETHANE",CC(OCC)OCC,102.2,375.35
2-PENTANONE,CCCC(C)=O,102.2,375.35
Methyltrimethoxysilane,C[Si](OC)(OC)OC,102.5,375.65
METHYLENE CYCLOHEXANE,C=C1CCCCC1,102.5,375.65
1-IODOPROPANE,CCCI,102.6,375.75
"Cyclohexene, 4-methyl-",C[C@H]1CC=CCC1,102.7,375.85
METHYLBUTYRATE,CCCC(=O)OC,102.8,375.95
1-PENTANAL,CCCCC=O,103,376.15
3-METHYL-1-CYCLOHEXENE,CC1CCCC=C1,103,376.15
3-BROMOFURAN,Brc1cocc1,103,376.15
"TRANS-CROTONALDEHYDE, CROTONALDEHYDE",C/C=C/C=O,103.1,376.25
"3-HEXENE, 2,2-DIMETHYL-, (Z)-, 3-HEXENE, 2,2-DIMETHYL-, (E)-",CCC=CC(C)(C)C,103.15,376.3
ALLYL ACETATE,CC(=O)OCC=C,103.5,376.65
ETHYLCYCLOPENTANE,CCC1CCCC1,103.5,376.65
2-METHYL-3-BUTYN-2-OL,CC(C)(O)C#C,104,377.15
TRIMETHOXYMETHANE,COC(OC)OC,104,377.15
"Propiolic acid, methyl ester",COC(=O)C#C,104,377.15
"1-HEXENE, 3,3-DIMETHYL-",CCCC(C)(C)C=C,104,377.15
"Butane, 2,2-dichloro-",CCC(C)(Cl)Cl,104,377.15
1-Ethyl-pyrrolidine,CCN1CCCC1,104,377.15
"1-Octene,3,3,4,4,5,5,6,6,7,7,8,8,8-tridecafluoro",C=CC(F)(F)C(F)(F)C(F)(F)C(F)(F)C(F)(F)C(F)(F)F,104,377.15
N-PENTYLAMINE,CCCCCN,104.3,377.45
"Ethanol, 1-ethoxy-2,2,2-trifluoro-",CCOC(O)C(F)(F)F,104.5,377.65
FLUORESSIGSAEURE-METHYLESTER,COC(=O)CF,104.5,377.65
AMYL NITRITE,CCCCCON=O,104.5,377.65
"2,4,4-TRIMETHYL-2-PENTENE",CC(C)=CC(C)(C)C,104.9,378.05
"1,1,3-TRIMETHYLCYCLOPENTANE",CC1CC(C)(C)CC1,104.9,378.05
BROMOTRICHLOROMETHANE,ClC(Cl)(Cl)Br,105,378.15
METHOXYFLURANE,COC(F)(F)C(Cl)Cl,105,378.15
3-CYCLOHEXENE-1-CARBOXALDEHYDE,O=CC1CC=CCC1,105,378.15
"1,2-Ethanediamine, N,N-dimethyl-",CN(C)CCN,105,378.15
DIETHYLARSINE,CC[AsH]CC,105,378.15
"1-PENTENE, 5-CHLORO-",C=CCCCCl,105,378.15
BICYCLO(2.2.1.)HEPTANE,C1C2CCC1CC2,105.3,378.45
"1,1-dichloro-2-methylpropane, Propane, dichloro-2-methyl-",CC(C)C(Cl)Cl,105.75,378.9
"1,2-Dimethyl-cyclopentene",CC1CCCC=1C,105.8,378.95
"Octane, octadecafluoro-",FC(F)(F)C(F)(F)C(F)(F)C(F)(F)C(F)(F)C(F)(F)C(F)(F)C(F)(F)F,105.9,379.05
"1-METHYLCYCLOHEXENE, Cyclohexene, methyl-",CC1CCCCC=1,105.98,379.1335
CHLOROACETYLCHLORIDE,O=C(Cl)CCl,106,379.15
PIPERIDINE,C1CCCCN1,106,379.15
"Boranediamine, 1-fluoro-N,N,N',N'-tetramethyl-",CN(C)B(F)N(C)C,106,379.15
BIS(CHLOROMETHYL) ETHER,ClCOCCl,106,379.15
"Propane, 1-bromo-2,2-dimethyl-",CC(C)(C)CBr,106,379.15
PEROXYACETYLNITRATE,CC(=O)OO[N+]([O-])=O,106,379.15
"3,3-DIMETHYL-2-BUTANONE",CC(=O)C(C)(C)C,106.1,379.25
"1,3-DIOXANE",C1OCCCO1,106.1,379.25
N-BUTYLFORMATE,CCCCOC=O,106.1,379.25
TRIMETHYLACETONITRILE,CC(C)(C)C#N,106.1,379.25
"CYCLOPENTENE, 1-ETHYL-",CCC1CCCC=1,106.3,379.45
"Butanoic acid, heptafluoro-, anhydride",O=C(OC(=O)C(F)(F)C(F)(F)C(F)(F)F)C(F)(F)C(F)(F)C(F)(F)F,106.5,379.65
3-Butyn-2-ol,CC(O)C#C,106.5,379.65
"2,2-DIMETHYLHEXANE",CCCCC(C)(C)C,106.8,379.95
1-BROMO-2-CHLOROETHANE,ClCCBr,107,380.15
N-METHYLPIPERIDINE,CN1CCCCC1,107,380.15
Sulfuryl chloride isocyanate,O=C=NS(=O)(=O)Cl,107,380.15
"Propanoyl chloride, 2,2-dimethyl-",CC(C)(C)C(=O)Cl,107,380.15
"THIETANE, 2-METHYL-",CC1CCS1,107,380.15
"Chloroformic acid, chloromethyl ester",O=C(Cl)OCCl,107,380.15
3-HEPTYNE,CCCC#CCC,107.2,380.35
DI (TERT-BUTYL) ETHER,CC(C)(C)OC(C)(C)C,107.2,380.35
3-FLUOROPYRIDINE,Fc1c[n]ccc1,107.5,380.65
2-CHLOROETHYLETHER,CCOCCCl,107.5,380.65
"1,3-Cyclohexadiene, 2-methyl-",CC1C=CCCC=1,107.5,380.65
ETHYL ISOPROPYL SULFIDE,CCSC(C)C,107.5,380.65
"1-Butanamine, N-ethyl-",CCCCNCC,107.5,380.65
ISOBUTYL ALCOHOL,CC(C)CO,107.8,380.95
DICHLOROACETYL CHLORIDE,O=C(Cl)C(Cl)Cl,108,381.15
2-CHLOROETHYL VINYL ETHER,C=COCCCl,108,381.15
"Ethanamine, 2-ethoxy-",CCOCCN,108,381.15
"Methane, tribromofluoro-",FC(Br)(Br)Br,108,381.15
"1,1-DIBROMOETHANE",CC(Br)Br,108,381.15
"PYRIDINE, 1,2,3,6-TETRAHYDRO-",C1C=CCCN1,108,381.15
"1,1,1-TRIMETHOXYETHANE",CC(OC)(OC)OC,108,381.15
"OXAZOLE, 2,4-DIMETHYL-",Cc1[n]c(C)co1,108,381.15
"1,1,1-TRICHLOROPROPANE",CCC(Cl)(Cl)Cl,108,381.15
"2-Pentanamine, 4-methyl-",CC(C)CC(C)N,109,382.15
"2-Butene, 1-chloro-3-methyl-",CC(C)=CCCl,109,382.15
Dimethylchloroarsine,C[As](C)Cl,109,382.15
TRIETHYLSILANE,CC[SiH](CC)CC,109,382.15
Pentanoyl chloride,CCCCC(=O)Cl,109,382.15
4-Fluoropyridine,Fc1cc[n]cc1,109,382.15
"Furan, 2-ethyltetrahydro-",CCC1CCCO1,109,382.15
"BUTANE, 1-(1-METHYLETHOXY)-",CCCCOC(C)C,109,382.15
"1-HEXENE, 4,5-DIMETHYL-",CC(C)C(C)CC=C,109,382.15
DIPROPYLAMINE,CCCNCCC,109.3,382.45
"2,2,3,3-TETRAFLUOROPROPANOL",OCC(F)(F)C(F)F,109.5,382.65
"2,4-DIMETHYLHEXANE",CC(C)CC(C)CC,109.5,382.65
ISOPROPYL PROPIONATE,CCC(=O)OC(C)C,109.5,382.65
ALLYL CHLOROCARBONATE,C=CCOC(=O)Cl,109.5,382.65
"1-PENTENE, 3-ETHYL-2-METHYL-",CC(=C)C(CC)CC,109.5,382.65
Dimethylaminoethyl chloride,CN(C)CCCl,110,383.15
1-PROPYLNITRATE,CCCO[N+]([O-])=O,110,383.15
1-HEPTEN-3-YNE,CCCC#CC=C,110,383.15
ETHYL ISOBUTYRATE,CCOC(=O)C(C)C,110.1,383.25
"2,3-DIMETHYL-1-HEXENE",CCCC(C)C(C)=C,110.5,383.65
2-METHOXYFURAN,COc1ccco1,110.5,383.65
TOLUENE,Cc1ccccc1,110.6,383.75
T-BUTYL-PEROXIDE,CC(C)(C)OOC(C)(C)C,111,384.15
DIALLYLAMINE,C=CCNCC=C,111,384.15
"2-Methyl-4,5-dihydro-oxazole",CC1=NCCO1,111,384.15
Allyl-chloro-dimethyl silane,C[Si](C)(Cl)CC=C,111,384.15
1-Chloro-3-methoxy-propane,COCCCCl,111,384.15
TRIMETHYL PHOSPHITE,COP(OC)OC,111.5,384.65
"2,4-HEXADIENE, 2-METHYL-",CC=CC=C(C)C,111.5,384.65
"1-HEXENE, 2,5-DIMETHYL-",CC(C)CCC(C)=C,111.6,384.75
"3,3-DIMETHYL HEXANE",CCC(C)(C)CCC,111.9,385.05
TRICHLORONITROMETHANE,[O-][N+](=O)C(Cl)(Cl)Cl,112,385.15
S-BUTYLACETATE,CCC(C)OC(C)=O,112,385.15
Quadricyclane,C1C2C3C4C1C4C32,112,385.15
"1,1,2,2-Tetrafluoro-1,2-diiodoethane",FC(F)(I)C(F)(F)I,112,385.15
3-METHYL-2-BUTANOL,CC(C)C(C)O,112,385.15
"2-Pentene, 3,4,4-trimethyl-",CC=C(C)C(C)(C)C,112,385.15
2-Heptyne,CC#CCCCC,112,385.15
"Phosphonous dichloride, ethyl-",CCP(Cl)Cl,112,385.15
"1,6-HEPTADIENE",C#CCCCC#C,112,385.15
"2,3-Dichloro-but-1-ene",CC(Cl)C(=C)Cl,112,385.15
"2,2,5,5-TETRAMETHYL-TETRAHYDROFURAN",CC1(C)CCC(C)(C)O1,112,385.15
2-Methyl-hept-3-ene,CCCC=CC(C)C,112,385.15
2-Methyl-pent-3-en-2-ol,CC=CC(C)(C)O,112,385.15
DICHLOROACETONITRILE,N#CC(Cl)Cl,112.5,385.65
3-METHYL-3-HEXENE,CC(CC)=CCC,112.5,385.65
"1-Pentene, 2-ethyl-3-methyl-",CC(CC)C(=C)CC,112.5,385.65
"PROPANE, 2-METHYL-1-(METHYLTHIO)-",CSCC(C)C,112.5,385.65
"CYCLOBUTANE, 1,2-DIETHENYL-, TRANS-",C=CC1CCC1C=C,112.5,385.65
Methoxy-acetyl chloride,COCC(=O)Cl,112.5,385.65
"BUTANE, 1-(ETHENYLOXY)-3-METHYL-",CC(C)CCOC=C,112.5,385.65
2-METHYLTHIOPHENE,Cc1ccc[s]1,112.6,385.75
4-METHYL-1-HEPTENE,CCCC(C)CC=C,112.8,385.95
2-PENTANETHIOL,CCC[C@@H](C)S,112.9,386.05
"1,2-DiCL-3,3,4,4,5,5,6,6-octafluoro-cyclohexane",FC1(F)C(Cl)=C(Cl)C(F)(F)C(F)(F)C1(F)F,113,386.15
"Oxirane, (methoxymethyl)-",COCC1CO1,113,386.15
2-Chloro-ethanethiol,SCCCl,113,386.15
"Pentane, 2-chloro-4-methyl-",CC(C)CC(C)Cl,113,386.15
"1-HEPTENE, 5-METHYL-",CC[C@H](C)CCC=C,113.3,386.45
"2,2-DIMETHYL-1-PROPANOL",CC(C)(C)CO,113.5,386.65
"2,3,4-TRIMETHYLPENTANE",CC(C(C)C)C(C)C,113.5,386.65
3-Buten-1-ol,C=CCCO,113.5,386.65
"DISILANE, HEXAMETHYL-",C[Si](C)(C)[Si](C)(C)C,113.5,386.65
PROPARGYL ALCOHOL,C#CCO,113.6,386.75
"1,1,2-TRICHLOROETHANE",ClCC(Cl)Cl,113.8,386.95
"1,1-DICHLOROBUTANE",CCCC(Cl)Cl,113.8,386.95
DIMETHYL DIETHOXYSILANE,C[Si](C)(OCC)OCC,114,387.15
NITROETHANE,CC[N+]([O-])=O,114,387.15
"Butanoyl chloride, 3-methyl-",CC(C)CC(=O)Cl,114,387.15
"2,2-DIETHOXYPROPANE",CC(C)(OCC)OCC,114,387.15
"CYCLOPENTANE, CHLORO-",ClC1CCCC1,114,387.15
Tetramethoxymethane,COC(OC)(OC)OC,114,387.15
3-Trifluoromethylpyridine,FC(F)(F)c1c[n]ccc1,114,387.15
"CYCLOPENTANE, 1,1,2-TRIMETHYL-",CC1CCCC1(C)C,114,387.15
"3-BUTEN-2-OL, 3-METHYL-",C[C@H](O)C(C)=C,114,387.15
"2,5-DIMETHYL-1,5-HEXADIENE",CC(=C)CCC(C)=C,114.3,387.45
1-FLUORO-2-TRIFLUOROMETHYLBENZENE,Fc1ccccc1C(F)(F)F,114.5,387.65
"5-Chloro-2,4,6-trifluoropyrimidine",Fc1[n]c(F)c(Cl)c(F)[n]1,114.5,387.65
"2,3,3-TRIMETHYLPENTANE",CCC(C)(C)C(C)C,114.8,387.95
"Cyclopropanecarboxylic acid, methyl ester",COC(=O)C1CC1,114.9,388.05
O-FLUOROTOLUENE,Cc1ccccc1F,115,388.15
N-METHYLPYRROLE,C[n]1cccc1,115,388.15
"1,2-Ethanediamine, N-methyl-",CNCCN,115,388.15
BUTYL ISOCYANATE,CCCCN=C=O,115,388.15
PYRAZINE,c1c[n]cc[n]1,115,388.15
"Methanesulfonic acid, trifluoro-, ethyl ester",CCOS(=O)(=O)C(F)(F)F,115,388.15
"Propane, 2,2-dibromo-",CC(C)(Br)Br,115,388.15
1-PENTEN-3-OL,CCC(O)C=C,115,388.15
"1-PROPYNE, 3-IODO-",C#CCI,115,388.15
"CYCLOPENTANE, ETHYLIDENE-",CC=C1CCCC1,115,388.15
"1-Chloro-3,3-dimethylbutane",CC(C)(C)CCCl,115,388.15
3-CHLORO-2-BUTANONE,CC(Cl)C(C)=O,115,388.15
"FURAN, 2-PROPYL-",CCCc1ccco1,115,388.15
"Carbonochloridic acid, propyl ester",CCCOC(=O)Cl,115.2,388.35
PYRIDINE,c1cccc[n]1,115.2,388.35
"Ethanol, 2,2,2-trichloro-1-ethoxy-",CCOC(O)C(Cl)(Cl)Cl,115.5,388.65
3-METHYLTHIOPHENE,Cc1c[s]cc1,115.5,388.65
"Carbonocyanidic acid, ethyl ester",CCOC(=O)C#N,115.5,388.65
"1,4-PENTADIEN-3-OL",C=CC(O)C=C,115.5,388.65
"SILANE, CHLORO(CHLOROMETHYL)DIMETHYL-",C[Si](C)(Cl)CCl,115.5,388.65
2-METHYL-3-ETHYLPENTANE,CC(C)C(CC)CC,115.6,388.75
N-METHYLMORPHOLINE,CN1CCOCC1,116,389.15
"BENZENE, 1,3-BIS(TRIFLUOROMETHYL)-",FC(F)(F)c1cc(ccc1)C(F)(F)F,116,389.15
"BENZENE, 1,4-BIS(TRIFLUOROMETHYL)-",FC(F)(F)c1ccc(cc1)C(F)(F)F,116,389.15
"3,4-DICHLORO-1-BUTENE",C=CC(Cl)CCl,116,389.15
"PENTANE, 3-CHLORO-3-METHYL-",CC(Cl)(CC)CC,116,389.15
1-METHOXY-2-PROPANONE,COCC(C)=O,116,389.15
3-PENTANOL,CCC(O)CC,116.2,389.35
"Ethanethioic acid, S-ethyl ester, Ethanethioic acid, ethyl ester",CCSC(C)=O,116.4,389.55
SEC-BUTYLACETATE,CC(C)COC(C)=O,116.5,389.65
"1,3-Dioxolane, 2-ethyl-2-methyl-",CCC1(C)OCCO1,116.5,389.65
BICYCLO(4.1.0)HEPTANE,C1C2CCCCC21,116.5,389.65
"Ethane, 1,1,1,2-tetrachloro-2-fluoro-",FC(Cl)C(Cl)(Cl)Cl,116.5,389.65
METHYL (3-METHYL)BUTANOATE,COC(=O)CC(C)C,116.5,389.65
"2,3,4-TRIMETHYL-2-PENTENE",CC(C)=C(C)C(C)C,116.5,389.65
"1,3-DIOXANE, 2,4-DIMETHYL-",CC1CCOC(C)O1,116.5,389.65
"1-CHLORO-2,3-EPOXYPROPANE, (CHLOROMETHYL)OXIRANE",ClCC1CO1,116.56,389.705
2-METHYLPENTALDEHYDE,CCCC(C)C=O,117,390.15
"1,2-ETHANEDIAMINE, N,N,N'-TRIMETHYL-",CNCCN(C)C,117,390.15
"2-Butenal, 2-methyl-, (E)-, 2-BUTENAL, 2-METHYL-",C/C=C(\C)/C=O,117,390.15
CYCLOHEPTATRIENE,C1C=CC=CC=C1,117,390.15
"CYCLOHEXENE, 4,4-DIMETHYL-",CC1(C)CC=CCC1,117,390.15
2-BROMOPENTANE,CCCC(C)Br,117.4,390.55
ALLYTRICHLOROSILANE,C=CC[Si](Cl)(Cl)Cl,117.5,390.65
"1-Penten-3-ol, 3-methyl-",CCC(C)(O)C=C,117.5,390.65
3-METHOXYPROPYLAMINE,COCCCN,117.5,390.65
"4-Methyl-3,6-dihydro-2H-pyran",CC1CCOCC=1,117.5,390.65
"2,5-Dimethyl-oxazole",Cc1[n]cc(C)o1,117.5,390.65
BUTYRONITRILE,CCCC#N,117.6,390.75
2-METHYLHEPTANE,CCCCCC(C)C,117.6,390.75
4-METHYLHEPTANE,CC(CCC)CCC,117.7,390.85
"HEPTANE, 4-METHYLENE-",CCCC(=C)CCC,117.7,390.85
ACETIC ACID,CC(O)=O,117.9,391.05
TRICHLORACETYLCHLORIDE,O=C(Cl)C(Cl)(Cl)Cl,117.9,391.05
CHLOROPENTAFLUOROBENZENE,Fc1c(F)c(F)c(Cl)c(F)c1F,117.9,391.05
1-FLUOROHEPTANE,CCCCCCCF,117.9,391.05
"Heptane, 1-bromopentadecafluoro-",FC(F)(F)C(F)(F)C(F)(F)C(F)(F)C(F)(F)C(F)(F)C(F)(F)Br,118,391.15
3-METHYLPENTAN-2-ONE,CCC(C)C(C)=O,118,391.15
3-METHYLHEPTANE,CCCCC(C)CC,118,391.15
"Silane, trichloro(chloromethyl)-",ClC[Si](Cl)(Cl)Cl,118,391.15
2-BROMO-1-CHLOROPROPANE,CC(Br)CCl,118,391.15
"1,1,2-TRICHLOROPROPENE",CC(Cl)=C(Cl)Cl,118,391.15
"PROPANOYL CHLORIDE, 2,2-DICHLORO-",CC(Cl)(Cl)C(=O)Cl,118,391.15
"CYCLOPENTANE, 1,1,3,3-TETRAMETHYL-",CC1(C)CC(C)(C)CC1,118,391.15
"BUTANE, 1-PROPOXY-",CCCOCCCC,118.1,391.25